4096
Atoms. Timestep: 540
1 20.8774 13.6616 4.22992
1 19.6133 24.7324 26.9329
1 7.2428 11.7932 9.84384
1 18.7801 10.9581 19.8605
1 3.03014 21.5579 4.71274
1 8.81864 19.5181 26.7019
1 22.0354 1.35243 10.9673
1 26.7701 2.40389 8.3149
1 13.4397 2.12725 11.5005
1 21.1247 13.6506 28.5289
1 17.3622 11.928 23.5347
1 26.0457 27.2827 20.5282
1 13.8693 0.483983 21.8658
1 13.4731 29.766 28.0303
1 25.194 26.3324 13.1601
1 29.9158 25.9281 23.3797
1 25.8807 26.4074 19.4761
1 7.233 15.081 23.4235
1 1.55419 7.69769 4.74113
1 29.8112 3.59116 21.8332
1 8.11748 28.5214 10.8842
1 12.4389 26.1502 13.4826
1 18.73 11.2963 9.55439
1 8.98258 18.6077 21.6006
1 13.2987 4.84311 10.3303
1 28.0281 11.0248 13.3382
1 18.9759 0.42151 6.01345
1 7.18114 9.50554 8.62268
1 16.5669 14.8126 0.171747
1 7.76527 24.2372 25.0637
1 7.01442 18.9012 18.8704
1 4.56364 12.5167 2.58
1 12.5579 15.4219 11.8077
1 13.7817 9.97042 19.2745
1 8.39517 23.1765 11.3164
1 7.63744 23.1589 22.856
1 26.209 11.3539 10.8448
1 16.8232 26.4397 22.5254
1 11.1265 15.1515 3.31651
1 1.40116 10.8834 13.0349
1 16.9372 6.69485 15.4938
1 30.3128 18.1601 8.01517
1 4.00272 19.0278 13.9651
1 18.1742 15.0535 12.5817
1 16.7133 5.34786 28.6004
1 18.55 29.9746 15.0975
1 12.755 3.10665 19.2132
1 9.02337 7.23796 26.0618
1 6.80881 22.2425 8.0833
1 21.4661 0.762003 8.71117
1 21.2447 3.66162 3.70622
1 19.5734 7.35619 13.9821
1 4.5235 20.1181 14.2842
1 10.018 9.51623 9.21507
1 6.7396 23.4191 24.0248
1 24.3399 9.60229 12.527
1 3.28089 6.07623 21.6881
1 8.71237 24.0057 0.543421
1 5.9834 25.7558 24.6368
1 24.9316 9.7606 24.1318
1 29.7109 6.97032 17.9983
1 3.70013 26.0497 14.563
1 21.2944 17.5243 7.22708
1 7.73148 7.91225 8.56741
1 0.907255 1.18209 14.7005
1 19.1834 25.8278 9.24782
1 20.9414 18.6691 29.0903
1 22.4651 20.6903 10.8176
1 24.572 28.1417 22.9176
1 18.2247 11.6089 5.54113
1 14.8655 0.762111 26.4497
1 27.8931 29.3899 1.80881
1 1.56018 3.07644 30.3417
1 9.25906 27.6421 17.3014
1 29.4312 1.94115 10.9689
1 20.2432 1.46683 24.3538
1 5.57061 27.8538 14.0601
1 0.566487 27.4998 21.8782
1 6.68616 9.55895 0.981278
1 1.07667 2.13959 15.8517
1 19.9668 9.76457 27.9352
1 20.166 17.5339 19.4578
1 20.9005 7.59387 12.2047
1 30.0291 22.1287 2.31393
1 19.5 10.0682 6.41001
1 2.61533 27.0399 11.0818
1 24.2059 1.31797 27.8148
1 28.5282 0.568019 3.98248
1 15.7855 7.07685 21.7649
1 26.3933 14.6481 20.1154
1 21.5766 24.6977 7.13477
1 5.48358 5.25788 2.78293
1 20.6758 28.71 26.9573
1 28.273 14.7631 13.2085
1 28.3269 21.31 5.14526
1 15.0896 17.8041 13.0734
1 25.6871 19.8683 7.54585
1 7.32278 4.47815 6.26595
1 20.318 3.45776 13.9698
1 11.2866 18.9532 2.89338
1 8.90365 7.85683 4.75139
1 0.724156 18.0457 22.8552
1 17.4471 21.2948 12.9604
1 12.0859 6.32209 1.27384
1 17.6891 23.0324 15.4404
1 30.0973 19.4508 2.13521
1 29.4142 8.29028 11.2839
1 9.55715 1.97169 21.3265
1 11.0358 5.27692 13.1924
1 13.4015 28.0175 30.2485
1 10.5963 7.57412 10.7781
1 13.1574 27.4424 23.8778
1 25.7112 2.62716 8.93392
1 19.687 25.2512 1.94978
1 29.6276 14.2249 26.1389
1 22.3313 17.078 13.9855
1 15.434 27.6139 14.8473
1 0.602047 22.4943 5.05241
1 15.8151 0.582482 7.38989
1 21.5499 15.0829 7.25288
1 19.5187 0.902459 17.7245
1 27.0862 20.4444 4.77364
1 22.4299 5.18014 9.95515
1 19.9598 28.8546 21.252
1 5.90141 14.8796 5.44179
1 14.7867 12.6226 21.729
1 30.1321 21.4075 11.2922
1 17.7865 24.7488 13.1307
1 11.6236 18.5333 14.8219
1 3.14636 23.6911 14.6713
1 27.9541 19.5199 20.0443
1 11.1357 11.7969 14.0152
1 9.27185 28.1731 15.1846
1 6.94961 5.63707 2.38947
1 1.41789 18.5544 16.2002
1 23.4303 2.83497 9.66759
1 11.2779 6.98162 8.73865
1 15.0599 13.2911 18.6023
1 13.6492 21.1452 22.1705
1 1.47567 22.8394 7.84411
1 15.6652 0.226642 1.66866
1 8.15984 27.2274 24.8634
1 17.4689 25.9933 2.50344
1 15.7783 23.3029 5.3936
1 21.9955 23.0762 10.3023
1 22.4744 25.2179 17.2384
1 29.9609 12.9883 12.885
1 19.0155 10.0669 24.3757
1 17.9659 3.97279 8.137
1 20.4768 26.8383 17.5338
1 26.5945 24.1793 29.4321
1 2.22028 22.439 1.84988
1 21.3617 11.067 1.10574
1 19.7129 27.7238 3.50668
1 3.1174 19.839 11.0536
1 25.1982 5.24811 7.04193
1 9.4965 20.5596 14.1491
1 12.9689 3.62791 25.0817
1 4.96783 22.6991 0.0888978
1 29.2091 8.7223 26.1927
1 22.9847 24.3775 4.30008
1 7.44276 29.8948 20.9945
1 3.82689 19.4951 17.0003
1 9.48806 10.995 2.5335
1 22.1088 28.0132 10.4548
1 29.614 9.0958 8.96145
1 18.1486 28.1702 0.660904
1 11.681 16.1601 19.4931
1 15.181 11.5776 16.2619
1 11.7004 15.0199 21.6382
1 5.60776 21.3665 27.2825
1 12.2548 8.10263 21.3148
1 11.3293 18.9723 20.9243
1 24.7325 5.76841 15.6939
1 21.1325 4.97602 6.82245
1 12.9644 14.5474 25.8789
1 3.82155 17.6439 10.9881
1 8.95492 0.767465 5.4045
1 23.2699 16.9641 16.7088
1 0.78269 20.543 11.148
1 8.77027 8.20374 12.4922
1 18.9215 13.688 24.0765
1 6.05749 15.4781 20.9009
1 9.24052 6.19186 1.54763
1 2.16786 23.958 7.39301
1 5.01389 2.00331 10.7314
1 22.4303 28.9202 2.67898
1 1.76685 13.7968 20.5386
1 17.7423 9.93281 14.1752
1 25.5675 8.14388 5.516
1 13.1789 17.7425 7.11794
1 30.0433 9.96923 22.1816
1 3.34799 11.6921 22.7236
1 10.9708 13.2177 12.0373
1 22.385 27.0532 21.6214
1 3.4117 1.23575 28.112
1 7.42891 18.9214 13.0804
1 0.494917 8.915 14.5302
1 12.3512 1.94024 7.7455
1 19.9096 19.4017 25.5875
1 0.960652 0.374484 27.1524
1 1.11687 1.12627 5.50535
1 21.8006 17.5578 1.68793
1 14.6216 6.62778 5.87309
1 2.04599 19.1492 7.79523
1 11.2665 8.75746 16.0273
1 26.683 26.0887 18.0603
1 27.0451 16.9857 28.6547
1 27.3402 22.9944 22.9875
1 6.67807 6.65863 26.697
1 16.441 5.80063 0.426355
1 17.2333 4.57531 29.6806
1 19.1706 22.645 4.25649
1 17.7451 6.14628 8.80519
1 2.15374 20.8676 11.0502
1 7.73596 10.4683 12.3399
1 28.4463 18.8284 25.8553
1 3.97948 0.622396 19.6028
1 27.5043 10.6271 6.47383
1 8.93338 10.9182 3.89257
1 20.3811 7.08675 3.6625
1 0.899137 12.6555 13.329
1 19.4198 9.97819 21.681
1 6.6232 23.3282 2.81928
1 23.2842 16.5442 4.84243
1 29.9882 13.7331 23.2522
1 19.3755 10.0585 3.82681
1 23.0335 0.647009 23.2311
1 1.70862 13.8341 5.40675
1 26.0211 27.0258 3.0208
1 5.18628 0.304362 21.688
1 12.2771 15.18 6.64093
1 6.21516 14.8641 16.8734
1 3.24332 9.62109 9.8725
1 6.28357 25.9241 19.9361
1 26.2589 21.7062 17.2671
1 28.0224 1.59262 10.259
1 3.27032 9.43465 11.2573
1 16.8345 7.51781 27.0499
1 0.507265 1.74184 1.94595
1 18.739 30.1732 18.3999
1 16.2446 10.8873 23.1435
1 0.318106 11.5582 7.35244
1 17.9105 1.04657 23.8824
1 16.2228 19.9135 0.773885
1 10.1912 17.0623 8.82484
1 3.90483 14.6174 19.9358
1 15.595 16.6771 3.22912
1 23.5468 22.3987 28.8753
1 20.5279 23.5322 13.3406
1 0.312462 21.2238 5.39789
1 14.2117 6.71574 9.38739
1 16.8015 19.1092 30.0942
1 9.33467 2.94868 25.8437
1 12.2992 3.81219 10.1583
1 28.5631 23.5778 23.0986
1 19.5892 28.2923 27.7364
1 14.0688 17.8854 2.16601
1 4.77266 1.72873 12.6457
1 30.4694 2.49142 13.1512
1 7.48918 9.25884 28.8505
1 9.57364 2.47953 28.5285
1 14.5169 17.4373 26.8596
1 1.34819 11.5078 30.0543
1 5.30513 12.6506 11.2536
1 14.2941 22.4243 14.0998
1 8.99379 4.44774 16.2335
1 28.3406 3.78781 28.6899
1 0.215454 1.13116 9.96271
1 1.76837 25.4042 7.58152
1 10.3234 2.49493 5.39595
1 19.5374 2.81199 6.76065
1 16.8592 12.9326 21.6093
1 4.47917 11.9231 0.943936
1 28.8577 21.2558 26.1897
1 5.32341 11.5619 10.2136
1 25.7123 7.86008 30.2526
1 7.09537 27.7745 10.8978
1 8.99699 23.1826 20.9502
1 4.89 2.88364 20.2736
1 17.4975 11.62 9.04152
1 1.5677 29.8431 20.3809
1 5.47593 3.32171 6.09458
1 26.6487 25.6871 7.71749
1 26.2418 7.75419 16.5627
1 8.78197 1.40942 2.14665
1 19.8115 22.9411 24.8156
1 27.6522 19.2506 4.91879
1 18.5755 26.3046 5.05237
1 12.7207 7.7521 10.7956
1 18.6891 12.1117 12.511
1 13.8463 19.1756 11.6894
1 2.3551 18.6164 1.82836
1 18.5658 16.1482 5.86385
1 26.9246 19.2026 23.3559
1 29.3485 12.7178 16.4736
1 7.94205 12.6163 24.3352
1 13.4049 21.8449 27.9164
1 11.9954 0.0961432 14.4774
1 23.5781 20.9526 7.49786
1 7.02987 17.2757 20.8547
1 10.7951 9.84986 19.9309
1 25.19 15.9578 1.39296
1 9.30683 15.0575 20.384
1 6.11985 11.1576 14.2446
1 30.0953 27.0508 7.87261
1 9.44061 24.786 22.751
1 3.83283 26.3813 2.18819
1 9.56719 22.9316 27.6623
1 16.125 30.1275 15.649
1 21.9189 17.0994 16.7545
1 24.012 2.63517 1.12963
1 14.767 5.19615 21.5357
1 26.6115 19.7935 13.9147
1 24.7966 8.33771 17.2901
1 11.3737 6.81224 24.2813
1 12.5453 28.478 25.8127
1 14.0875 15.7264 18.2485
1 19.9263 26.1629 18.7232
1 19.5427 16.718 22.2239
1 23.7603 16.6138 13.7017
1 21.5485 8.01783 9.80448
1 2.80196 13.1135 29.1348
1 3.85566 0.814544 11.4544
1 7.34465 21.3696 15.5882
1 14.7409 21.6212 12.1434
1 0.114117 18.9811 16.9676
1 14.1625 12.2748 3.74013
1 4.42067 10.932 26.4566
1 12.5457 12.079 28.4757
1 14.923 22.2919 9.95083
1 14.3871 28.4614 21.8386
1 18.7164 3.90216 16.4915
1 28.1063 17.9526 1.71586
1 11.5779 6.54983 4.13802
1 3.95945 23.1498 3.36109
1 15.4521 8.99318 5.67734
1 8.62264 15.1227 25.324
1 21.5593 11.3533 29.0905
1 3.62064 24.1865 1.15433
1 2.29337 3.05974 15.7757
1 15.6453 21.6688 28.9899
1 23.0955 26.9327 10.4392
1 0.75416 3.96908 10.482
1 30.2557 28.5483 22.8943
1 1.44346 8.15432 17.3941
1 7.13834 17.4213 28.042
1 9.80764 24.2723 18.5958
1 30.0864 2.99397 6.61324
1 1.22698 11.3482 10.9554
1 19.363 8.36673 8.88316
1 17.8189 18.6886 26.7838
1 0.411365 16.2031 22.8774
1 12.5082 9.91135 27.695
1 8.05522 2.97102 4.42749
1 13.3384 5.27907 13.4724
1 29.3188 3.17321 15.5428
1 23.0848 17.5787 25.9764
1 13.3919 27.0755 0.986679
1 15.117 3.05186 5.83153
1 5.48342 6.10656 22.0938
1 26.8756 22.7147 1.49846
1 21.4899 22.7659 13.4826
1 16.2386 23.2173 0.259514
1 12.0353 15.2564 17.0987
1 17.02 27.5328 0.648638
1 6.57982 18.3122 2.3147
1 21.9311 25.0816 3.83122
1 10.6316 2.55362 15.3514
1 13.0052 2.09775 5.15844
1 8.30723 6.31273 19.1387
1 21.3153 27.1671 1.26608
1 5.38345 3.42645 17.4913
1 26.8343 4.58226 24.409
1 13.0617 9.73421 11.8225
1 11.3057 25.6952 0.631969
1 23.0492 14.7961 16.4878
1 24.8269 22.0103 23.254
1 19.2718 7.4402 2.72599
1 11.7399 19.0064 27.7568
1 23.4738 3.20921 12.7627
1 11.083 10.9005 24.0242
1 4.36819 3.6788 0.0667731
1 24.7424 25.8051 29.4694
1 19.3161 0.590068 2.31946
1 4.56974 2.71562 0.751107
1 25.6323 4.48853 2.54514
1 12.2939 26.8465 26.0319
1 6.35358 8.30672 16.5133
1 13.0803 29.9215 19.444
1 10.22 21.9027 19.2508
1 5.49857 10.0103 14.3398
1 22.8381 4.62323 20.0678
1 21.2505 21.2062 28.8323
1 7.64778 9.94176 11.1063
1 8.94747 27.0306 7.42978
1 16.2717 18.9423 27.2518
1 24.1422 0.0951396 2.37824
1 22.2059 22.6284 28.5336
1 15.8124 16.9721 19.3742
1 8.68862 4.96662 25.2324
1 9.35123 0.941842 3.41163
1 19.7711 28.7791 2.50417
1 29.7681 9.6643 12.0198
1 0.110486 12.7609 2.49401
1 29.5691 0.0763784 23.7113
1 27.5618 2.85227 21.6749
1 7.20394 29.3696 13.3901
1 20.1834 12.08 14.3328
1 3.76369 11.4569 16.3775
1 12.6717 18.9368 5.42037
1 6.7736 11.971 28.6605
1 27.4851 13.7597 22.6438
1 10.1973 5.65431 29.2654
1 20.8783 12.4385 3.87908
1 26.2386 25.1679 22.5801
1 13.6992 7.65029 28.4645
1 8.29851 2.5513 26.7492
1 29.2145 6.97494 20.1774
1 27.0855 4.91766 28.7412
1 7.82041 24.6208 8.68092
1 5.20067 4.14941 4.97063
1 18.3109 26.7483 9.25694
1 0.307888 6.05191 22.2295
1 17.3698 20.702 10.2676
1 28.7902 26.9249 7.4976
1 16.3385 12.7662 27.5181
1 11.3603 25.3694 21.1754
1 21.0858 28.0049 15.4719
1 9.69942 25.96 7.86009
1 14.6371 25.3143 29.5771
1 18.7076 14.0091 27.5594
1 23.3842 22.9619 1.45444
1 0.0816197 11.7847 30.3114
1 14.9975 19.9704 2.9997
1 7.10806 1.5814 22.3139
1 10.1903 12.0952 13.0923
1 13.7968 13.1527 20.9137
1 5.35793 12.9983 16.5863
1 3.58811 2.57347 20.7498
1 7.94675 13.24 16.6412
1 25.3706 9.01502 18.4308
1 3.53331 12.02 6.0413
1 10.1909 24.1757 9.32634
1 15.3089 13.9275 6.7189
1 20.1506 8.81134 18.4056
1 22.7608 11.2541 16.4598
1 28.9445 6.2138 5.39925
1 6.92829 13.9151 5.73949
1 18.2951 23.2281 29.5366
1 12.3198 22.2008 18.0536
1 26.8913 8.00636 24.456
1 10.9912 8.11563 22.3188
1 11.0767 2.62976 4.12686
1 6.43528 13.5122 11.6307
1 8.16325 12.0719 18.7873
1 15.315 23.2511 2.85605
1 12.1768 10.2485 3.69246
1 21.3747 6.27799 23.4838
1 3.28385 5.08941 22.5006
1 12.8216 29.069 2.61624
1 1.31166 5.85334 19.8161
1 29.3361 6.32677 29.3189
1 20.7626 8.50918 23.0136
1 7.40647 15.3903 29.9464
1 27.8707 16.9571 10.8486
1 23.0235 1.93599 0.285792
1 27.7853 1.44466 1.66884
1 12.9131 27.7883 9.92077
1 9.1742 30.0635 3.19982
1 1.72025 20.9098 2.14597
1 20.2444 24.9766 7.3237
1 8.44033 10.8324 30.2311
1 17.4748 15.6115 16.0794
1 12.7092 11.2549 11.9192
1 19.2943 11.5213 6.68415
1 6.71475 18.7385 14.2852
1 26.4989 16.0096 13.9114
1 26.7679 9.10351 10.7627
1 16.3494 5.38325 15.6646
1 16.8857 4.74047 23.1068
1 24.1352 2.11614 12.0203
1 26.3983 12.2976 28.9351
1 16.8286 28.4021 20.5557
1 4.39678 28.8452 17.1139
1 13.8648 19.1915 2.38273
1 13.7368 20.9865 19.409
1 25.5609 15.8886 20.0185
1 16.0557 8.24348 17.0502
1 21.5955 9.24163 16.0475
1 30.2276 16.5053 16.7349
1 27.0991 27.4234 5.0498
1 10.4683 21.2439 13.4439
1 13.5544 17.9029 20.9075
1 10.5727 25.0233 1.54503
1 11.5457 28.63 6.29571
1 10.3014 29.5345 6.46919
1 19.9095 26.6329 11.4802
1 19.1956 8.92724 17.2881
1 6.87107 6.91726 1.90247
1 15.5645 14.8728 20.7342
1 19.0536 12.2203 10.663
1 21.1807 29.4708 19.1295
1 20.7414 4.18106 0.175767
1 20.538 17.6217 10.1684
1 13.9494 23.1467 9.99141
1 22.7108 10.1032 0.397591
1 30.3631 5.15686 13.8633
1 2.61729 13.8256 1.92056
1 27.3114 7.30656 21.0345
1 28.7116 13.3495 29.4006
1 15.1621 11.0737 11.4988
1 12.4177 24.1161 4.63146
1 24.8034 1.14524 19.7669
1 20.6047 2.29937 25.4181
1 19.5987 14.4257 4.41042
1 17.0829 22.4651 12.09
1 10.5991 29.9852 23.007
1 0.277242 27.8422 16.3712
1 7.34003 4.56421 21.2262
1 7.02295 27.7162 2.67468
1 9.34988 12.3983 19.3621
1 1.73132 25.8691 23.2438
1 4.29773 30.3613 1.58539
1 19.6771 22.3228 21.508
1 1.33244 6.47497 21.2782
1 5.97444 2.64899 19.9134
1 20.1835 11.5972 26.7682
1 25.0347 1.23406 4.92174
1 16.9503 8.43343 23.5785
1 20.0248 9.10529 26.5034
1 21.6161 28.0305 25.7716
1 15.4595 30.2283 20.504
1 8.49695 28.4097 16.4078
1 4.65764 6.99759 25.653
1 18.8207 23.2349 22.6869
1 0.412562 12.3815 8.39612
1 24.8112 16.0304 29.4191
1 20.5101 25.1664 13.7825
1 2.44508 10.6827 3.5053
1 6.37194 26.6898 27.7699
1 6.23727 10.9045 17.0256
1 3.40617 7.85668 6.77
1 25.4415 9.75328 5.48598
1 16.6824 29.7601 20.1728
1 16.2094 2.13008 5.41243
1 15.2931 26.0556 13.2721
1 23.2437 23.6058 10.2602
1 9.45297 3.73481 24.9892
1 17.4625 9.90289 11.011
1 2.24763 17.4081 28.997
1 19.1708 18.0698 22.1325
1 25.3737 21.9447 4.6411
1 23.1961 1.79633 23.9244
1 0.459824 12.9408 28.1485
1 21.7808 28.0989 13.0268
1 6.17709 17.1332 11.2225
1 0.209765 3.51969 0.119951
1 24.2599 18.2074 26.1492
1 21.5906 1.62858 0.789551
1 23.3876 19.474 16.363
1 8.27811 13.6544 6.34755
1 27.6168 21.5762 29.1651
1 2.78443 18.5558 11.0059
1 9.4015 11.7501 5.67312
1 3.05019 7.41093 29.4105
1 3.3854 14.7302 16.7949
1 5.16849 2.59271 3.01184
1 27.3836 0.0734544 29.9065
1 25.3736 4.85472 30.4285
1 7.06155 25.876 5.09006
1 14.5119 29.6053 14.0496
1 2.36383 16.4193 25.7648
1 27.3942 9.75292 22.229
1 13.8034 13.0134 26.792
1 13.0138 22.8355 11.8679
1 15.2654 25.1012 10.1271
1 8.53313 25.8879 10.4144
1 29.5736 27.5815 19.6933
1 26.6887 29.4723 17.8778
1 7.08118 20.2197 23.8921
1 12.7077 18.7673 17.4363
1 1.9404 2.95475 3.00062
1 28.6658 22.9566 17.2763
1 21.0902 6.84653 0.44194
1 25.1103 29.4277 22.5008
1 10.6366 20.3898 21.493
1 4.02257 26.5383 3.61782
1 28.8086 20.9573 10.8761
1 23.3588 7.93155 0.690212
1 28.7527 19.329 2.01577
1 28.9781 3.25369 19.3982
1 4.86668 4.96924 0.530079
1 8.76633 15.4314 7.60338
1 18.7523 2.14083 20.0266
1 5.20365 13.4918 28.2833
1 21.7878 2.13368 17.2081
1 10.0449 0.209548 18.1922
1 12.5044 20.9665 3.50165
1 16.9476 25.424 17.5089
1 0.63513 0.420861 23.4234
1 22.7266 29.2874 10.5039
1 20.0919 22.9756 23.3775
1 2.7859 20.1955 22.8282
1 6.19596 8.78429 24.6756
1 26.3973 29.2455 2.04212
1 27.2259 10.6749 25.0634
1 16.5248 24.2145 17.4873
1 8.54594 5.20132 9.45683
1 20.5983 11.6111 25.344
1 29.4507 20.6885 4.93172
1 23.7611 23.9909 23.1667
1 11.9293 27.5785 20.2771
1 17.2681 22.7111 1.32843
1 16.3146 17.9283 9.36762
1 16.7747 20.9854 16.5577
1 9.60598 4.61686 22.1643
1 8.47491 17.7159 22.9723
1 28.4839 21.1528 23.0621
1 13.1187 21.6068 23.785
1 30.0428 21.0268 19.7911
1 26.507 30.1869 10.1626
1 10.129 9.47947 22.0845
1 13.3965 7.56361 16.1085
1 15.6754 4.81154 10.957
1 23.8528 2.13662 7.04653
1 9.13398 25.2106 9.12298
1 23.4452 6.05106 13.5499
1 4.09482 20.6673 1.15263
1 13.735 3.37472 5.17065
1 24.1557 29.6395 10.5239
1 9.72164 20.8586 8.62752
1 13.5537 23.7481 12.5018
1 26.2504 7.4866 8.24829
1 17.8812 5.52887 12.0361
1 11.5246 8.1154 2.8828
1 6.32733 28.4606 9.1361
1 25.3654 0.925809 25.6167
1 10.0631 12.2502 9.82021
1 3.23031 6.14527 10.7704
1 21.2873 9.35832 24.2426
1 19.3927 16.2579 7.68727
1 27.3158 4.35275 9.83139
1 23.0274 10.5693 9.26856
1 25.8221 17.2206 29.2361
1 22.2657 16.7812 19.5681
1 23.7754 3.66647 28.8768
1 14.4624 25.8631 15.5109
1 10.3867 25.1373 3.75648
1 26.5429 28.1492 7.36549
1 17.1479 22.6139 2.90829
1 16.8933 8.92295 1.93544
1 9.47662 24.0134 11.1198
1 22.6988 25.6761 10.65
1 13.9971 7.73373 10.2064
1 19.5822 7.72284 22.8508
1 14.0247 5.94318 22.7817
1 21.7114 29.283 6.12596
1 18.4645 11.166 4.42123
1 7.87881 8.91304 5.57132
1 1.13252 26.8027 1.16344
1 18.601 28.1326 6.52098
1 21.6378 0.837346 12.6038
1 8.78023 5.86901 8.32998
1 7.74939 23.8063 3.83792
1 6.42721 20.9051 0.823943
1 5.5287 0.525314 19.7128
1 16.1181 20.1729 10.3671
1 7.90582 2.216 8.44583
1 9.47209 0.911491 16.8139
1 21.6333 1.49005 4.96117
1 14.7094 24.2507 5.77575
1 2.08834 7.99142 22.9112
1 2.35657 16.484 13.5051
1 30.0853 15.8289 7.63817
1 11.1952 9.16868 3.84521
1 25.9771 15.8325 22.9583
1 4.07283 9.27388 16.2192
1 2.46483 24.2103 29.0053
1 9.32508 9.4429 24.4769
1 30.427 20.7235 8.16207
1 6.82818 21.0062 6.36315
1 20.3124 12.69 18.784
1 28.8887 9.95135 13.3058
1 20.0229 5.57513 15.6738
1 25.5885 16.2613 4.34731
1 7.43453 18.9298 3.00134
1 25.9509 4.64918 28.1476
1 17.1951 9.97374 30.3208
1 23.5406 6.66191 0.997565
1 15.3218 5.82642 9.65788
1 4.12802 22.5335 7.32137
1 9.52919 12.9876 7.84553
1 18.2583 18.7349 13.5516
1 17.367 26.8309 11.9436
1 8.95908 23.8691 25.2779
1 4.99619 3.9497 3.5801
1 17.1246 17.3276 19.2888
1 17.4298 28.2498 17.9524
1 7.35815 13.0428 22.0237
1 6.9796 24.6571 14.7734
1 19.0769 12.7826 29.6222
1 1.45318 20.4228 8.08825
1 16.5442 24.0515 23.5935
1 10.1425 3.55228 21.4616
1 4.26456 2.33875 17.4931
1 8.66358 17.6096 0.596567
1 10.2713 16.2241 10.1482
1 22.3465 27.074 15.7345
1 7.9169 4.91696 28.9927
1 13.9538 26.7856 18.2237
1 20.409 26.8607 19.8464
1 23.0113 21.529 1.54509
1 25.3028 2.58683 1.44876
1 9.91686 4.09164 9.64395
1 13.2922 3.83695 0.160905
1 12.2497 1.46529 9.29451
1 21.0474 8.00409 26.7858
1 9.32174 6.98889 2.78433
1 18.7222 30.3275 25.5244
1 2.01976 8.92234 11.4927
1 7.02942 8.05508 2.79464
1 5.17579 12.4219 12.6504
1 22.3577 24.8877 28.9369
1 23.4725 7.97046 23.3393
1 18.2685 8.6851 5.87558
1 25.7384 6.79526 13.7516
1 19.1762 17.3607 29.2418
1 11.137 17.3339 29.6821
1 2.17772 2.87447 13.3804
1 19.1894 17.2221 10.1757
1 1.58829 5.22277 29.4312
1 13.631 17.373 30.0857
1 5.98933 20.0168 14.327
1 20.9141 10.0305 8.47455
1 7.45232 4.95197 19.8949
1 29.3899 4.82477 8.36215
1 23.1999 7.47479 20.6368
1 0.628224 15.1194 1.66716
1 11.787 3.4528 7.51863
1 4.0032 4.20204 14.687
1 5.05797 9.02744 28.8932
1 24.3065 12.992 26.1026
1 4.61933 11.9148 9.27313
1 13.0019 15.8317 23.8984
1 26.5845 1.87355 17.9867
1 25.0454 1.18516 15.9035
1 15.9044 22.3503 7.94724
1 29.7822 6.04427 30.4753
1 12.379 20.5771 14.902
1 28.0897 9.26025 4.64022
1 28.2126 8.46961 13.3404
1 5.29692 13.6176 14.353
1 18.1269 4.46662 14.2989
1 20.7384 16.3704 22.5068
1 22.6848 3.74301 4.00892
1 23.736 20.981 10.6596
1 28.0897 17.1726 7.68169
1 20.558 1.82046 21.7011
1 21.5382 5.09154 24.4791
1 4.97797 9.24376 22.087
1 10.2127 5.20583 16.2216
1 18.2231 7.2532 11.8365
1 7.73235 14.5531 18.8603
1 10.1784 21.3016 10.7404
1 6.12384 12.8404 22.2515
1 15.571 16.4679 12.3355
1 14.7867 12.9435 12.8807
1 11.8768 21.5798 4.65492
1 25.0557 4.3893 14.2537
1 4.12473 0.169117 27.7212
1 26.6931 5.34151 17.535
1 14.4439 8.27641 15.2325
1 22.568 5.71322 14.7342
1 3.66038 15.4381 5.16427
1 16.9833 14.5921 13.2573
1 21.446 12.1927 22.4198
1 18.6626 13.6161 1.37767
1 16.6317 29.3988 5.61381
1 27.5215 15.3286 25.6611
1 3.06576 29.0172 13.5311
1 15.1412 15.3805 3.38293
1 21.8137 27.5312 2.53357
1 2.49679 6.31105 4.53597
1 18.3791 14.0244 19.6436
1 15.0365 25.8247 2.80837
1 5.20051 19.1267 25.8432
1 7.933 29.7659 1.2234
1 3.54322 25.6777 18.7198
1 28.6929 0.513068 27.0912
1 27.5954 11.0968 22.7057
1 26.5322 11.3566 7.62924
1 5.74896 20.0131 6.83832
1 22.6903 21.8535 23.2637
1 0.375641 29.7122 3.61697
1 23.1583 5.50102 18.9668
1 9.15341 13.1503 10.2316
1 27.412 4.0553 22.3532
1 2.47653 29.6604 5.04215
1 12.2693 27.8613 7.21985
1 19.0597 13.9015 9.85868
1 24.4271 8.22751 12.2239
1 5.08725 25.9102 14.9619
1 19.8849 26.3098 30.2031
1 20.2981 10.0541 24.8269
1 21.2517 20.0877 19.8687
1 8.3104 1.6825 17.198
1 23.132 5.95273 15.9978
1 2.3507 20.1246 25.819
1 13.1853 17.8294 10.8271
1 20.3037 15.9366 1.05221
1 6.84679 13.7285 2.63018
1 5.38142 11.5241 3.11979
1 20.5227 9.82144 3.0242
1 24.2602 23.2132 16.5585
1 7.24554 18.9517 6.00254
1 4.42455 8.18405 29.6485
1 23.6075 2.55405 3.65139
1 21.1245 5.7894 21.7841
1 2.05078 7.59758 30.2831
1 3.94089 5.44819 27.295
1 0.0783224 11.4906 2.76529
1 11.6854 14.5402 12.7602
1 6.95956 15.8659 22.212
1 20.3185 29.6924 26.2088
1 26.887 7.03514 29.9436
1 30.097 2.99099 26.4301
1 18.0245 9.58686 7.06089
1 3.24625 27.2689 14.4103
1 11.7602 18.1553 13.2305
1 24.4084 10.0333 4.51971
1 23.9484 21.9315 4.57541
1 14.5167 9.67691 11.4435
1 29.5875 12.309 28.2768
1 19.0394 12.4665 21.6859
1 6.10751 28.442 28.9342
1 6.21125 27.2291 16.4622
1 16.1391 12.5223 19.1176
1 21.152 22.3588 26.481
1 14.2337 16.2705 0.196973
1 2.17327 27.7089 0.430841
1 13.7772 22.1815 18.708
1 4.6529 25.253 24.2901
1 7.51824 13.2782 19.3368
1 11.6736 8.49068 18.26
1 10.5177 10.4814 29.2951
1 21.4588 8.91708 12.101
1 4.35043 24.8012 7.24128
1 4.50889 5.73067 6.00835
1 4.3579 14.0216 11.1516
1 10.3418 22.1777 1.76163
1 12.1267 25.6525 16.0174
1 16.5503 9.5368 20.5128
1 26.2006 20.2179 10.7048
1 1.15084 4.17128 11.7855
1 8.68932 15.254 23.5391
1 2.6028 10.4903 29.0284
1 6.84587 0.182529 17.5552
1 19.4379 17.3134 14.1945
1 14.8189 16.063 7.32914
1 25.3153 19.9719 13.5665
1 16.5436 10.8947 11.8524
1 29.2255 8.82081 24.8027
1 10.2733 13.6387 23.8092
1 26.4532 20.0188 1.89213
1 9.74038 25.8327 26.5603
1 24.6548 19.0899 22.9644
1 26.8762 25.0955 4.47116
1 6.53388 25.6609 26.588
1 23.1327 5.04087 29.6011
1 2.28129 19.6579 16.9808
1 15.0534 8.71342 10.5925
1 4.5883 16.8431 25.2918
1 25.7416 3.74727 9.84275
1 28.0559 22.7543 4.75034
1 30.0951 22.8837 17.1574
1 29.1998 19.2608 14.2755
1 15.4183 12.5145 29.6928
1 21.6007 4.31171 9.15689
1 15.5908 22.4842 14.4163
1 12.6353 17.3435 8.55245
1 25.8826 0.196752 22.835
1 14.3996 16.4697 14.5629
1 3.06478 23.886 4.27737
1 11.4531 11.3076 7.94648
1 28.3019 28.7313 16.7055
1 2.07062 7.89955 12.4488
1 10.8063 25.2917 11.6733
1 17.1328 23.336 18.4849
1 2.97439 13.7268 24.0491
1 23.8452 8.81613 24.4409
1 24.0286 10.1131 27.5416
1 14.8688 8.66587 14.0087
1 21.7053 12.2578 1.85163
1 26.2379 25.2251 16.8591
1 22.9641 9.47652 2.6283
1 11.2694 28.4985 11.5661
1 21.5221 29.6489 0.398807
1 19.9705 14.315 22.7733
1 25.8692 17.0413 23.5136
1 25.5671 12.4347 7.07058
1 29.5614 18.5475 10.9108
1 8.9455 26.6251 27.324
1 25.229 2.45984 16.2235
1 10.8272 7.97144 26.6527
1 5.75462 12.3443 0.433026
1 13.5398 19.8727 22.6288
1 29.3051 9.25557 18.1535
1 28.498 15.7632 19.6598
1 0.398622 3.09543 25.0981
1 26.6799 1.7058 10.9066
1 11.2151 7.07184 28.9846
1 8.58823 12.756 13.3493
1 1.87226 22.5979 22.9478
1 15.7945 16.3536 20.8038
1 25.5385 1.39742 20.8983
1 22.5945 9.81919 24.4595
1 23.9264 11.7579 25.441
1 8.7631 9.85782 16.6803
1 15.8826 30.2991 29.956
1 23.8875 20.4762 1.6237
1 7.54995 26.7533 22.3321
1 18.5274 25.3317 24.0004
1 23.1883 23.9591 19.9322
1 8.029 17.6954 6.56944
1 30.4515 28.2903 7.72705
1 2.31214 18.8946 28.8118
1 23.6821 29.5272 7.19769
1 27.1769 25.2524 13.6907
1 1.4512 25.5749 14.9722
1 13.1426 10.1237 16.3608
1 20.9131 16.2056 28.8494
1 19.2709 18.5087 7.89752
1 10.8838 24.4075 13.9714
1 25.0769 23.4862 23.3238
1 19.2229 21.8404 1.00307
1 18.2251 3.28714 24.918
1 17.8179 28.4831 22.1452
1 16.2349 5.38848 22.242
1 9.79169 10.3251 5.72925
1 28.576 16.0021 22.6475
1 5.98265 3.06077 16.3034
1 29.993 6.29458 10.6181
1 10.037 17.0671 4.30471
1 6.99631 29.3417 25.7076
1 27.2969 29.9973 28.6561
1 23.9661 12.7335 22.7636
1 16.2751 16.3877 28.1478
1 2.72564 11.0286 19.5912
1 9.44868 15.0541 11.9831
1 16.5866 27.7164 26.7594
1 0.657798 30.4739 21.1654
1 18.8911 12.7259 13.9122
1 3.62598 16.8696 28.7394
1 1.39223 1.2608 10.8206
1 25.2261 1.80156 22.562
1 13.0918 11.2616 19.0358
1 23.6169 20.3156 4.60268
1 29.6533 23.5963 11.2124
1 27.638 6.26723 2.83421
1 29.4588 29.4364 18.1087
1 9.55944 0.494288 12.755
1 15.3782 26.1585 24.4872
1 27.6402 12.8957 26.4273
1 13.0528 12.6811 15.2834
1 22.7941 27.444 13.5643
1 16.5359 3.72724 17.7783
1 14.1462 16.6773 3.73311
1 21.081 12.2626 10.7527
1 4.96349 4.99389 16.9547
1 6.27022 28.487 0.821857
1 12.8427 1.49677 2.50183
1 29.802 2.48873 7.91907
1 12.4653 0.831546 6.51547
1 3.75933 2.62198 26.0237
1 10.0946 18.9944 17.3289
1 12.4737 3.70124 22.8336
1 18.2549 26.4242 28.2556
1 17.1016 26.2228 1.13242
1 1.54871 12.5468 29.2766
1 27.6481 21.9802 20.0285
1 10.1923 10.4031 24.8074
1 1.53277 30.0424 1.62524
1 7.09434 10.0177 29.8876
1 9.39063 5.66252 5.90592
1 9.53807 7.89084 14.5104
1 18.1953 10.0573 29.3635
1 28.1954 0.704011 14.9197
1 29.6921 17.9177 16.7138
1 17.841 0.570737 12.886
1 23.5186 26.2983 13.0781
1 1.66976 22.7221 26.4636
1 3.98833 24.2566 5.2687
1 19.0156 3.77662 20.1998
1 21.0152 14.5003 25.8355
1 24.0746 30.4603 27.288
1 4.85989 26.8007 1.22991
1 26.4062 12.4557 26.2234
1 25.9059 28.156 16.0307
1 15.5492 11.6279 28.3563
1 9.27274 14.4204 6.25901
1 0.315569 11.2773 18.4635
1 14.7899 20.4586 20.1783
1 14.4134 3.43552 21.2964
1 11.9481 4.07448 18.5014
1 17.3045 27.9359 5.53511
1 20.7243 16.3722 4.78199
1 13.8569 14.9561 24.7696
1 29.3974 14.4325 29.5489
1 11.5162 17.8818 9.05832
1 30.2841 6.81761 8.09384
1 25.4499 28.6123 0.873901
1 23.4833 1.37681 2.99028
1 26.1623 3.97752 23.1682
1 24.8418 12.0187 28.5318
1 3.72385 24.5587 25.3562
1 0.749709 0.292001 6.46779
1 16.1737 16.0278 23.5497
1 30.3136 2.98069 1.77203
1 9.61767 0.985727 9.79822
1 8.52761 22.7276 6.37355
1 11.5102 26.2285 3.91004
1 7.68373 10.3914 27.5527
1 27.7503 15.649 4.19594
1 11.2475 9.53798 28.7069
1 3.23834 12.5272 2.53041
1 23.9706 3.4127 14.2128
1 13.015 7.69916 2.47722
1 3.36321 15.0234 1.94759
1 23.7359 25.2681 19.8598
1 16.9702 23.2872 10.088
1 15.1404 12.6209 6.7278
1 29.8441 22.7452 29.8307
1 28.7053 0.430536 20.2835
1 21.3361 22.6295 19.7903
1 16.2369 22.5056 9.26326
1 29.8718 24.9047 11.1693
1 23.8884 25.5419 2.02152
1 2.54379 10.0313 4.94935
1 25.7611 26.8951 25.0158
1 9.19518 27.6744 18.6099
1 27.4286 20.8551 14.1374
1 10.7773 16.3461 6.62174
1 4.48691 4.1746 10.5734
1 5.10293 22.6102 27.7529
1 3.20574 17.4819 1.61009
1 14.6332 9.01575 29.6642
1 21.8739 10.3947 18.4816
1 15.7596 3.79361 13.573
1 29.4922 3.07077 24.0995
1 6.31632 25.169 8.15525
1 7.76367 27.3154 20.79
1 1.62922 20.9478 23.2723
1 18.527 1.53053 17.3322
1 14.5447 28.8541 4.92716
1 6.0988 14.294 25.5054
1 15.4822 6.39285 2.14895
1 9.8512 5.53929 27.6994
1 24.2818 9.96748 13.939
1 23.544 3.00391 25.6251
1 22.4455 24.0289 1.16712
1 22.1739 14.4306 4.68247
1 24.2722 2.06566 8.7705
1 2.4578 29.3133 22.6745
1 2.0685 3.45858 5.16943
1 6.6149 16.896 2.39492
1 4.78324 14.7607 28.3188
1 26.3112 4.51864 13.6584
1 20.2046 12.3026 7.26183
1 28.2051 28.1433 19.7179
1 12.0596 21.335 5.96545
1 15.8695 21.9998 21.8145
1 29.0637 3.77821 2.33566
1 15.7289 8.58012 18.6112
1 0.960116 26.1269 20.5785
1 6.32159 9.91088 26.905
1 17.5254 0.486835 28.1685
1 10.6648 14.1303 25.1503
1 22.5688 22.8443 26.3939
1 26.8996 14.597 29.0874
1 24.4141 26.8047 2.57643
1 25.9873 23.3552 26.197
1 28.1013 13.1243 2.02628
1 18.0344 16.2427 18.9732
1 20.2389 6.9923 28.2944
1 13.8795 3.11388 28.1647
1 5.36659 2.99981 28.4495
1 30.2717 6.55314 19.221
1 3.26835 2.72773 5.28293
1 28.9034 5.87528 17.5822
1 23.802 0.377103 0.688914
1 28.2615 26.4466 16.8993
1 15.4682 28.5292 8.81856
1 5.03597 13.5166 22.6927
1 11.6905 29.6038 23.6388
1 26.0805 4.07694 25.5283
1 8.474 4.04781 29.8153
1 7.68718 20.8119 28.3992
1 18.5974 1.76615 5.82893
1 23.9046 3.47186 22.198
1 7.49733 20.1429 3.74357
1 12.6738 23.1512 26.2975
1 22.3364 5.82722 3.49494
1 13.2551 5.6526 8.41648
1 28.5366 12.2727 13.1199
1 23.5404 27.6341 15.1931
1 26.3966 11.656 22.6513
1 6.58025 2.64784 2.19759
1 20.421 1.70915 18.2162
1 7.52561 26.2373 2.76905
1 7.49327 12.7064 2.99966
1 11.7417 27.7193 8.67322
1 10.0288 14.1363 11.1616
1 2.75986 16.4333 22.7728
1 9.28689 13.8407 22.9144
1 11.568 9.72126 9.59743
1 2.04028 11.7234 26.1581
1 29.8566 4.55104 6.9485
1 16.0985 6.15315 13.3523
1 23.7494 1.06732 17.715
1 9.60292 16.5393 22.8478
1 5.89719 23.7979 27.9042
1 10.6253 8.60884 1.84554
1 8.37733 9.45833 13.0767
1 26.2834 2.34762 28.9625
1 2.19139 27.5628 7.18518
1 3.90493 21.2834 14.2689
1 21.6215 20.9293 23.2153
1 17.7145 8.78742 0.964891
1 22.7958 25.3057 1.35156
1 27.8972 21.7108 17.2478
1 21.4814 22.3888 7.0719
1 12.8587 23.6013 0.83679
1 18.0802 20.6877 22.3167
1 17.9494 15.9519 11.5283
1 5.71662 4.84369 25.0768
1 9.15243 6.30593 24.9531
1 17.0729 27.738 23.3449
1 3.75447 12.1966 13.1468
1 13.9149 25.5294 17.5458
1 26.8643 17.8311 23.5736
1 14.9394 17.6868 25.2388
1 9.09436 26.6161 20.4937
1 11.5287 4.68067 15.8384
1 9.93631 25.8476 21.7653
1 2.70934 0.44442 10.3915
1 19.4684 23.8308 17.7292
1 11.8196 29.351 19.2835
1 27.4566 30.3745 8.25882
1 3.65224 18.8524 7.64352
1 3.80331 29.7799 29.617
1 28.7198 28.3893 13.4603
1 13.1462 24.7601 13.5968
1 15.0291 2.47034 23.3814
1 5.14051 10.3644 9.60062
1 6.22784 3.53004 18.5444
1 16.0918 27.8915 29.683
1 12.1135 22.7891 6.62061
1 11.5391 11.8125 29.2743
1 5.93808 21.7217 29.849
1 2.50351 1.41627 25.171
1 14.3451 27.3363 9.4791