4096
Atoms. Timestep: 20
1 20.0052 1.47731 0.363044
1 15.7066 4.43358 28.6
1 17.9039 6.2097 21.0214
1 4.90173 12.4955 27.3254
1 15.933 4.0119 13.3422
1 10.7748 30.1178 0.673705
1 9.59828 15.274 3.28076
1 15.8111 23.2923 3.72023
1 14.0944 3.36775 24.9509
1 12.4477 22.9336 3.17843
1 4.7731 23.0666 9.81774
1 1.99347 10.9665 10.9416
1 2.46798 6.8366 24.4934
1 6.65552 28.1091 3.88898
1 14.9016 7.58791 3.091
1 2.85822 15.9723 9.4875
1 22.4246 0.727879 22.813
1 2.0255 26.7985 7.01088
1 23.0191 7.98595 13.906
1 6.46172 4.56262 17.445
1 0.787585 19.9704 0.780157
1 23.4312 30.3872 13.6505
1 28.7833 4.52641 18.9253
1 21.9295 0.841439 7.86081
1 1.27432 17.3264 10.9203
1 3.24764 3.87968 1.94904
1 17.0698 7.80612 26.422
1 12.811 21.5584 8.89605
1 4.39891 3.45735 25.5281
1 29.2717 3.76942 10.6712
1 9.49873 23.8743 24.2555
1 22.4123 9.75537 23.485
1 2.8652 13.8379 11.1785
1 12.1633 4.76468 17.716
1 20.5034 17.0263 10.2321
1 14.6042 29.5584 4.54038
1 24.3076 9.18172 8.70918
1 9.92484 0.39177 30.0249
1 15.21 6.28427 0.442893
1 24.3499 13.0625 15.2383
1 5.75938 21.9792 3.42573
1 26.0901 15.7849 29.8566
1 27.2268 12.6805 30.1897
1 18.6587 7.22413 8.07869
1 3.98737 0.862218 3.08347
1 4.18957 17.2613 19.1307
1 12.8962 24.9921 9.51738
1 10.7808 29.5635 10.4541
1 13.7918 3.10422 17.2503
1 4.59268 16.1557 27.5549
1 25.5549 28.1575 24.4256
1 8.28916 10.2132 5.20637
1 27.5894 12.6594 23.0175
1 7.84738 0.236942 13.424
1 18.4079 15.5985 10.6729
1 19.8255 29.7053 16.118
1 28.7821 11.844 26.1474
1 26.7356 17.883 26.5978
1 1.92991 2.78922 29.4051
1 22.8036 2.37159 27.7126
1 5.27599 3.15866 4.36144
1 1.8376 4.11188 15.5246
1 28.9954 1.93145 1.95168
1 6.51631 13.8877 13.2388
1 19.5189 19.5949 29.5162
1 7.42735 26.4989 18.461
1 26.9637 26.4647 9.72518
1 7.04165 26.8149 1.84843
1 16.699 2.307 16.0749
1 8.3083 5.29827 15.1807
1 6.97609 10.4041 5.19369
1 4.11581 17.429 13.7429
1 14.1323 6.34523 15.4759
1 10.7158 28.1477 16.3511
1 23.6409 4.70376 5.31202
1 6.69588 24.6657 28.2821
1 0.555852 4.3362 30.281
1 22.0127 5.47866 26.3132
1 11.9118 22.6447 6.92105
1 13.5597 28.0154 9.112
1 4.11787 19.6355 23.6614
1 1.96237 19.6107 19.0418
1 20.2258 20.0891 21.7083
1 19.1094 13.9056 21.0713
1 19.6855 6.41454 26.1198
1 29.7314 27.5585 26.331
1 16.0132 29.6577 22.178
1 16.8109 1.33241 20.568
1 9.41697 1.41289 25.7136
1 7.83665 4.02047 25.9527
1 1.92691 11.0021 27.0153
1 19.3429 26.9134 5.8545
1 20.7164 20.1353 16.0051
1 15.4419 15.4802 8.01399
1 7.79035 27.8431 12.4544
1 18.6172 8.54562 9.26433
1 23.0643 12.5893 5.24604
1 0.260184 10.1548 18.8225
1 5.38332 22.4143 29.9873
1 29.8325 21.5978 6.23181
1 22.1881 30.3697 17.4997
1 22.4381 8.15364 26.5209
1 13.0954 10.907 6.80665
1 10.7576 12.637 13.0641
1 1.51286 25.1705 18.246
1 12.6778 11.6405 11.9463
1 28.8885 17.9407 21.5844
1 6.27138 26.094 16.6819
1 12.9413 18.2025 10.7381
1 27.4199 22.8127 26.392
1 24.1427 24.1832 21.1505
1 12.4066 16.3223 5.77154
1 1.10814 24.7487 3.68912
1 29.8449 4.64241 17.0635
1 0.991472 21.1331 22.7074
1 15.5318 4.32045 14.7327
1 15.4563 9.69816 5.46999
1 11.6525 27.1498 29.4981
1 9.77858 11.6107 10.0142
1 7.3863 2.6015 3.5811
1 22.1328 21.8846 18.3273
1 18.0927 8.61438 14.58
1 21.7898 23.8476 8.43599
1 19.9748 14.2118 0.63323
1 3.72255 7.07406 26.5494
1 28.3687 23.4062 30.3383
1 2.25298 27.4148 26.6712
1 13.848 11.7402 11.2423
1 1.18819 17.7364 6.62961
1 21.982 15.9915 27.4647
1 27.7766 3.42488 4.56338
1 7.18506 1.89081 16.7297
1 25.5783 2.35803 14.3162
1 2.65593 1.36307 21.2865
1 14.4773 1.02282 23.1293
1 6.93372 2.55113 21.3781
1 6.52069 3.56233 12.2053
1 11.5146 25.8071 2.24358
1 30.261 21.3144 0.783355
1 5.29183 3.65418 14.0421
1 7.4102 9.92378 0.732506
1 14.454 1.05922 26.4237
1 13.6889 22.9843 3.72052
1 16.4857 28.539 16.5055
1 24.299 29.7057 18.3102
1 13.1153 13.2174 20.0472
1 0.851817 19.2656 29.7376
1 1.29241 3.25506 9.44889
1 13.9722 1.88865 3.68539
1 10.6467 5.0889 14.8813
1 27.3346 25.8332 5.19812
1 18.2143 24.2994 19.6256
1 15.6181 7.69456 4.42485
1 18.4519 19.6352 8.92171
1 17.2807 12.6909 20.0406
1 26.9735 17.1859 8.37585
1 21.8502 14.1046 21.9709
1 5.29409 7.07066 28.554
1 7.62865 26.1448 19.9063
1 16.0865 18.0145 18.3787
1 3.99593 23.2879 25.2843
1 1.41103 18.4503 5.18881
1 27.8723 1.90425 13.8756
1 24.5495 7.39228 25.6019
1 2.91848 16.2224 23.3287
1 29.678 27.6388 29.9532
1 10.4895 22.0224 19.8441
1 0.467269 24.1896 9.90299
1 9.97333 10.2473 16.8404
1 25.9763 13.4632 4.01695
1 28.3094 28.0403 16.7429
1 14.1025 16.0082 15.2307
1 6.01522 27.5345 13.9942
1 7.17871 13.093 3.84967
1 12.3106 1.05097 7.33587
1 18.9798 1.43354 6.83401
1 26.0797 5.57721 19.5791
1 4.52417 16.4126 10.1231
1 1.6132 20.6451 25.7918
1 2.4871 22.6285 20.8939
1 9.13294 2.93711 9.46711
1 16.6905 19.7716 1.92823
1 24.8404 14.4798 27.8885
1 17.2783 26.2068 4.40171
1 1.60533 16.9697 8.76721
1 13.7667 28.6413 28.9693
1 27.2767 3.85426 16.8188
1 4.47373 14.4959 15.6259
1 2.70501 9.94339 10.1271
1 3.18565 30.0673 15.1354
1 2.40292 8.11527 22.2429
1 15.5296 27.2641 24.2291
1 3.34292 11.8206 6.46796
1 20.8367 27.9368 14.5908
1 12.9781 12.1756 7.19368
1 1.08945 2.45238 25.4463
1 26.9545 18.0439 9.39952
1 1.2086 15.1841 17.8754
1 16.5802 24.5394 11.3674
1 12.1841 14.0333 11.42
1 14.7781 15.4565 29.984
1 20.8644 21.4278 21.8963
1 25.9582 1.49281 2.38038
1 8.49478 9.10548 14.8149
1 26.7822 3.93643 22.9313
1 20.7638 0.623076 12.6546
1 25.1779 9.06112 14.609
1 21.8061 12.4973 3.36548
1 9.90983 30.1575 6.10462
1 5.12973 19.256 8.63619
1 16.0084 14.5416 24.2943
1 4.26589 21.173 27.2668
1 2.2351 4.43647 5.01277
1 20.8073 5.79815 12.7945
1 15.1336 22.3734 23.9519
1 29.5292 1.75525 6.38577
1 13.1863 12.9691 5.99981
1 28.6065 10.4399 7.34427
1 18.9599 16.3782 18.0059
1 3.87348 25.8312 8.83862
1 19.9442 25.4903 28.5555
1 8.14634 17.1967 4.09244
1 2.82488 13.5659 17.6312
1 6.03563 12.9796 26.7683
1 20.5452 10.0346 22.356
1 11.5549 2.99596 9.33292
1 21.8397 30.2359 25.3354
1 14.2139 1.37414 9.31632
1 4.26595 11.0146 2.63363
1 30.1224 28.5037 22.6037
1 5.99487 10.9952 15.2577
1 1.74989 17.8175 21.4622
1 24.9471 22.8147 5.70301
1 16.542 6.58786 4.50532
1 6.35388 3.29118 1.84878
1 9.7388 12.308 19.0369
1 27.7302 6.37089 27.3669
1 11.8164 9.91221 8.71428
1 16.6012 19.172 20.9034
1 26.9818 16.131 10.704
1 21.4645 1.67044 25.6587
1 21.6974 15.1812 4.64141
1 8.74595 20.1792 20.0847
1 15.1693 17.2809 10.4974
1 3.07077 20.1889 14.1486
1 15.3813 12.4159 25.9686
1 17.5546 12.6559 25.5061
1 22.2441 10.1035 11.3326
1 23.8438 23.5321 18.2079
1 7.10919 7.61612 4.46246
1 17.1225 9.93645 25.3132
1 18.6434 20.8174 13.5106
1 28.9118 3.35868 26.0907
1 24.0078 9.88829 6.42718
1 27.0895 8.13232 2.65607
1 27.0297 1.71716 29.9036
1 5.76333 27.3617 10.4104
1 26.103 20.4123 2.74596
1 21.5977 29.8109 12.2904
1 24.9024 8.09031 9.13738
1 6.79413 15.0329 12.4103
1 30.0149 4.7636 13.3758
1 7.06098 23.2287 1.81541
1 2.52623 9.77193 15.6797
1 25.7193 10.5718 17.1013
1 27.0772 28.6017 30.1027
1 1.59081 26.1206 0.68856
1 7.39015 1.58679 5.9521
1 15.2371 11.742 22.6422
1 18.7942 22.2945 16.5359
1 7.13631 1.74445 15.1695
1 1.29506 22.658 1.95729
1 3.26534 17.5496 23.8855
1 26.7109 1.83145 17.9228
1 5.22791 3.16027 1.13264
1 28.1829 8.77392 14.4944
1 12.7638 17.526 3.17682
1 11.072 15.3303 25.6175
1 22.436 15.1924 17.4777
1 29.8541 2.49707 2.9608
1 5.79034 4.05628 8.03302
1 2.42347 29.5346 6.8387
1 19.459 17.601 7.9365
1 8.04854 20.2116 3.69608
1 20.2455 16.9064 1.83944
1 12.5574 24.4377 28.753
1 30.3948 8.1368 4.91975
1 1.16849 11.6002 20.7471
1 9.36883 4.76184 7.41969
1 12.7688 13.1519 27.2204
1 26.1546 0.213517 1.65937
1 22.491 5.93823 21.7553
1 9.39451 27.8794 8.24097
1 26.9653 22.2109 1.85318
1 6.59495 21.138 14.7233
1 19.7391 21.4482 25.4625
1 30.3416 8.20221 21.6743
1 18.4756 13.3842 19.4081
1 9.1282 13.5451 14.4084
1 1.53565 20.4674 15.9409
1 19.0786 1.92956 16.7935
1 1.98394 8.93502 27.5475
1 21.6508 9.39541 24.7578
1 16.4997 24.3241 0.807564
1 1.16265 23.288 25.2905
1 19.0514 24.808 27.7348
1 3.36188 21.1472 8.82936
1 9.22476 18.3471 15.5622
1 15.194 0.480662 29.5106
1 8.72 4.65848 6.30079
1 29.4747 15.4738 8.27385
1 16.4832 6.87743 16.649
1 3.07843 13.9587 19.8714
1 0.425571 13.2994 8.8322
1 3.97258 13.4876 13.3067
1 8.40105 2.13485 10.8311
1 2.4983 0.520312 26.1443
1 6.53024 11.0837 25.3929
1 3.08446 11.1425 19.3641
1 22.1095 22.4605 29.1453
1 23.8119 30.3893 9.01196
1 22.8599 10.0231 29.2153
1 18.8508 16.7488 4.94335
1 27.0505 24.8451 21.941
1 29.3145 6.36418 8.91644
1 14.0628 8.62881 1.18312
1 12.4313 19.0942 5.0799
1 29.9269 29.19 7.42101
1 28.3491 23.7074 6.2089
1 3.65625 22.5342 9.03446
1 11.0019 5.54039 17.1136
1 11.8911 6.15583 9.49709
1 12.3258 14.9265 23.7593
1 20.1992 5.46207 22.867
1 16.951 2.73825 26.7333
1 25.7859 16.8216 14.3715
1 28.8274 10.3888 11.6432
1 14.1124 23.5974 11.1024
1 15.1961 24.946 1.04121
1 13.2368 4.62031 29.4216
1 7.88568 30.1407 2.98575
1 12.6134 9.54832 7.76712
1 11.4224 20.9767 0.877719
1 26.3598 26.052 22.1228
1 11.8741 29.4581 30.0701
1 2.28944 19.5295 16.5797
1 7.37509 8.93525 1.6635
1 27.5303 15.1127 23.6212
1 28.0356 2.48373 20.4025
1 13.3924 1.63481 14.0108
1 25.0346 15.2429 20.1466
1 0.538591 3.64777 18.032
1 20.719 5.99587 5.34025
1 11.4479 20.6527 17.829
1 20.5261 11.8709 7.66969
1 7.46569 28.8753 29.1306
1 24.8018 4.1031 5.40135
1 21.0378 11.968 10.1996
1 6.21258 18.0398 10.6943
1 13.8318 19.8934 3.15794
1 26.1736 13.2773 8.93182
1 2.81708 24.8839 8.02817
1 12.8277 30.1524 15.563
1 8.07858 30.2869 9.1848
1 3.19911 7.64903 25.3972
1 17.5386 28.532 13.0631
1 6.89371 13.2945 23.1879
1 26.7316 28.6047 11.0462
1 4.2486 27.38 27.8604
1 5.72185 15.6115 7.65101
1 20.4014 9.41298 28.3526
1 27.2388 3.20841 15.4853
1 11.6638 3.30759 13.6347
1 0.272861 23.5436 24.1129
1 14.2909 23.6277 1.45702
1 24.794 7.29209 7.93031
1 10.2138 8.40264 24.9709
1 21.5733 21.7368 3.16456
1 21.1912 16.0063 13.184
1 23.9388 28.6223 3.97592
1 12.1207 7.87247 15.7012
1 27.8613 29.7478 13.0091
1 26.3614 5.4323 7.35415
1 28.0828 15.6705 14.7246
1 9.44197 29.2205 23.6489
1 6.26863 5.26633 1.55373
1 8.37394 3.08347 0.271335
1 5.0803 30.1226 8.07505
1 8.3074 25.567 23.3297
1 9.64134 1.46973 16.394
1 15.2449 25.1699 18.0308
1 15.8121 22.0124 12.6361
1 22.1717 9.80457 17.9568
1 28.1611 20.0795 1.65396
1 9.62085 22.6631 28.9375
1 9.08143 8.87897 27.2958
1 4.66708 6.06808 19.5544
1 19.7643 29.6234 7.91148
1 15.736 17.1001 5.00033
1 3.61864 13.7154 3.12622
1 14.8528 14.0024 27.9007
1 5.12893 6.23861 16.9923
1 10.1796 1.41517 20.4103
1 3.02859 22.5772 6.66248
1 5.34376 13.8443 25.6418
1 20.5645 22.6933 27.4945
1 18.1921 22.2499 15.1876
1 15.7676 5.24689 6.01418
1 3.21209 24.2399 14.4359
1 26.404 14.8813 17.3825
1 9.30602 23.7314 17.7285
1 16.7752 1.16697 23.8168
1 15.5314 24.6726 9.14871
1 16.9311 26.1509 19.9862
1 25.8462 23.8926 6.23612
1 24.1443 23.5815 14.7264
1 6.37615 26.7383 28.6685
1 11.8719 5.08291 4.10488
1 13.9985 10.9414 18.2126
1 2.95538 3.17799 19.8747
1 5.21721 13.1944 12.8003
1 12.5781 0.48595 18.8209
1 11.3082 5.05221 5.36653
1 14.3035 2.99111 9.31015
1 0.859308 5.50528 19.765
1 3.79588 8.99494 22.2235
1 4.00116 4.83591 15.7896
1 0.230404 19.8527 23.9298
1 0.601506 5.63452 25.4059
1 17.8685 0.61382 19.8629
1 23.1686 14.4832 2.18664
1 13.1011 2.18599 30.1199
1 4.62746 23.6267 5.21611
1 12.8829 6.20521 23.2714
1 18.1063 17.5969 29.597
1 25.9083 25.0209 11.4385
1 24.1225 23.6136 1.83692
1 28.0021 15.7262 26.5441
1 3.78092 8.84419 12.9849
1 29.692 7.23316 4.33302
1 21.8106 24.3494 25.7689
1 10.9148 1.48246 29.168
1 10.5662 4.35409 13.6364
1 1.27312 9.51893 24.2123
1 3.29253 17.5519 14.904
1 1.63492 6.1871 7.88978
1 19.2827 13.1375 18.382
1 27.0029 1.57472 24.0905
1 24.0479 6.68196 18.3285
1 18.0005 10.699 0.918834
1 2.07601 20.1299 1.37002
1 5.20106 3.42477 12.7896
1 17.8517 14.0774 18.1747
1 13.0344 6.72708 18.7132
1 7.30706 20.0892 10.196
1 6.73177 22.3846 17.9725
1 20.2593 3.86641 15.4207
1 25.9522 7.20527 23.8968
1 21.5435 12.114 8.80091
1 0.410294 5.86565 4.47075
1 3.28263 5.51043 12.4101
1 1.37072 19.3834 8.66837
1 20.333 17.1249 5.84198
1 4.73896 10.4061 5.01187
1 18.3434 20.2181 29.0234
1 14.6392 13.2446 12.585
1 4.67205 2.68315 16.3878
1 8.55529 5.9132 17.5737
1 12.6569 17.421 26.4933
1 23.256 13.6615 11.4345
1 29.2685 9.34118 1.78694
1 2.26514 14.7953 6.52163
1 6.62293 28.0825 12.7447
1 28.0975 3.05503 28.5386
1 10.6822 12.3443 26.8852
1 3.83903 26.9181 12.1559
1 23.0128 13.0829 3.04188
1 20.9104 14.252 5.33093
1 15.2143 0.788606 19.0179
1 16.9428 28.7334 5.63
1 25.4397 23.6785 21.7152
1 2.22842 9.82825 25.2748
1 3.28307 5.70112 8.16968
1 15.7004 28.5798 1.98042
1 9.08115 7.70796 7.26321
1 10.8171 5.20447 27.6731
1 15.0664 9.62841 21.3073
1 1.61544 13.1324 1.60314
1 4.88232 9.71063 6.2531
1 12.9291 25.1216 12.3403
1 23.5212 15.7884 8.00043
1 18.7978 9.96776 8.90939
1 18.9564 17.3958 12.3487
1 4.29064 25.9727 18.6226
1 0.710418 11.7658 23.2047
1 5.42759 0.631483 5.00199
1 5.47155 24.6081 15.0791
1 2.17891 20.2592 6.66277
1 12.0133 4.9539 24.9315
1 29.9701 9.89092 6.70715
1 3.90781 28.905 4.46273
1 2.46667 9.12652 3.63488
1 17.0214 26.4251 2.04529
1 6.40662 23.2816 0.639742
1 21.3414 15.3168 28.6668
1 8.71281 5.40317 8.32558
1 25.3768 21.3638 18.6593
1 3.75925 22.0856 20.8587
1 21.2515 17.7412 21.7649
1 1.02593 1.10688 12.7409
1 23.3948 29.8689 25.0529
1 29.2411 27.0691 1.28133
1 25.532 6.33354 3.8815
1 24.6675 20.7434 7.06082
1 27.0841 9.26314 23.9395
1 10.9648 1.29237 27.9636
1 12.9186 23.8367 10.3798
1 1.75604 21.6875 6.6296
1 11.4821 28.8814 27.2834
1 19.7331 27.1197 17.7098
1 6.67892 7.45991 14.7174
1 22.0756 19.6007 30.378
1 26.9084 13.6334 12.9318
1 23.4892 12.615 6.62792
1 20.5226 14.9211 16.0693
1 28.3162 20.9962 3.85077
1 16.3185 14.5774 5.95694
1 6.90481 1.16202 12.7605
1 12.5264 3.62404 17.2127
1 11.3438 26.9167 15.3199
1 10.837 4.30965 19.7208
1 25.0492 26.698 5.06616
1 19.7704 6.9065 22.7301
1 20.6237 26.2675 8.31336
1 13.5063 18.4562 4.25795
1 25.1545 3.28116 17.4065
1 9.14709 3.61471 17.4159
1 29.9007 29.7386 24.6478
1 7.22286 2.70802 7.90348
1 23.8561 26.3566 15.0414
1 13.7107 20.2846 25.3216
1 21.7083 10.9109 22.9062
1 4.07594 18.5055 27.3825
1 27.3471 25.1521 12.0234
1 7.92053 16.3862 20.4539
1 19.6667 26.7712 12.7278
1 4.77763 28.0721 30.1162
1 29.7885 20.2498 5.59099
1 20.6686 16.5599 25.161
1 4.5847 0.745211 24.8804
1 25.0932 24.7133 19.1368
1 0.487398 12.3342 21.9613
1 17.4179 27.6217 7.04398
1 11.1716 16.9116 11.151
1 6.87866 9.3803 8.98205
1 26.9625 6.2894 18.8662
1 23.3477 24.6066 22.1742
1 6.54488 19.8379 20.5471
1 0.267493 26.9213 12.3145
1 28.218 19.4338 25.9374
1 10.1993 28.5594 28.0585
1 12.4012 27.5576 27.3395
1 8.81761 21.8072 22.2659
1 7.36581 29.0567 9.48406
1 24.0287 1.86889 25.8348
1 23.8189 9.20249 28.8017
1 18.8824 10.8357 10.224
1 16.3566 10.8573 27.5019
1 19.4967 24.2864 3.23375
1 13.1793 3.09613 29.2169
1 2.56763 26.2881 11.9822
1 3.57856 11.2453 17.7241
1 13.4432 21.5967 16.8088
1 24.834 9.09435 23.0958
1 27.0686 20.4056 15.3662
1 4.92912 18.6779 13.7417
1 19.286 4.06223 6.78359
1 12.8925 4.07922 11.3276
1 22.9095 29.586 20.8657
1 4.36283 18.6219 15.5063
1 7.08765 6.46609 7.64633
1 8.91727 15.3331 22.9374
1 22.7792 2.56192 29.1008
1 18.5119 27.0558 4.82799
1 5.41357 16.5492 30.3588
1 16.9368 10.6353 24.1529
1 17.4345 6.79644 28.7202
1 23.8165 10.2484 18.1203
1 7.76152 27.788 5.66509
1 1.78176 9.68072 13.306
1 1.44195 14.1041 16.8733
1 4.19557 20.3637 17.9197
1 2.29487 16.8874 15.6059
1 25.5871 5.84728 0.900756
1 22.8701 29.1451 0.528178
1 24.6963 1.15005 29.6067
1 11.197 11.3357 24.068
1 20.9653 9.54762 14.8741
1 13.0896 10.7515 20.8046
1 12.5065 0.202961 21.4063
1 12.7861 9.24625 29.0143
1 9.37088 23.8486 9.84386
1 24.7997 5.53561 18.1176
1 20.8633 8.32813 29.059
1 29.959 23.2015 11.9956
1 12.406 26.9726 4.5759
1 23.7725 13.6119 27.6764
1 3.82838 19.7037 8.49263
1 21.4672 26.4784 22.0552
1 22.9133 1.75852 23.4528
1 22.0037 22.0856 4.57658
1 8.42355 10.1542 29.9982
1 28.4841 15.9543 21.3759
1 9.72237 25.3971 20.8761
1 18.5616 7.39565 22.4538
1 25.7038 26.025 27.003
1 23.3613 14.99 30.1264
1 17.2946 0.726101 4.88132
1 5.49563 14.808 24.6611
1 3.56979 28.8287 5.91732
1 26.1735 10.1681 18.3828
1 5.47943 7.06924 23.7026
1 1.51176 15.2097 27.8145
1 28.2035 3.13729 1.59112
1 2.6135 29.3957 28.2989
1 30.3545 24.6984 8.76204
1 30.1248 24.2439 28.3384
1 15.9653 21.5259 28.5098
1 18.4855 12.8644 29.3973
1 18.1899 4.13029 14.1807
1 17.3445 12.9991 22.8775
1 16.5249 5.13411 18.665
1 18.2209 15.4393 16.0125
1 9.4157 28.1413 22.8057
1 6.70444 18.2668 7.45286
1 10.9781 11.1483 4.16762
1 22.0101 25.2417 21.7316
1 9.50132 14.1922 5.37225
1 15.4972 15.464 21.4701
1 20.1088 7.73665 30.1045
1 28.3325 7.13803 4.35803
1 2.62263 7.03371 18.2591
1 11.665 19.8968 24.3301
1 15.9805 18.3481 14.7539
1 3.25192 18.4082 21.9477
1 6.45224 14.5254 22.6752
1 2.37193 7.01336 27.4865
1 28.0275 11.8639 19.796
1 7.26636 13.6137 8.78731
1 20.7567 25.2278 5.40433
1 29.1353 10.0306 18.178
1 17.0292 23.3981 1.59035
1 25.7696 2.67207 9.2467
1 2.63715 15.6555 15.7775
1 11.9893 29.6588 11.4034
1 11.4507 11.3845 22.7113
1 25.8012 8.84669 27.5558
1 5.75322 11.7704 13.0848
1 23.5372 13.8058 18.9634
1 13.6062 4.81231 25.1294
1 27.544 8.18634 21.1551
1 21.4172 18.441 0.265751
1 3.84299 17.0601 5.68843
1 16.0561 27.3444 1.09437
1 11.6994 30.2637 16.6672
1 10.152 30.2264 21.0075
1 25.5886 7.41836 26.6189
1 29.614 14.1785 15.5872
1 6.49213 3.86766 22.0745
1 24.4775 10.6712 3.3087
1 21.055 19.0325 22.5544
1 28.0554 6.30265 5.6209
1 25.8767 3.66385 29.7112
1 29.7895 18.9473 3.27367
1 2.3888 30.0386 14.1902
1 27.5676 25.7034 13.3857
1 28.0163 24.3214 8.65097
1 6.2349 15.8555 28.9643
1 25.9634 1.66795 21.7595
1 29.4666 15.8254 16.5084
1 19.01 22.0217 14.2078
1 10.855 4.66373 15.997
1 12.183 25.0625 3.25408
1 2.84261 5.4819 24.2896
1 23.7191 4.1672 27.2252
1 18.567 9.21763 17.3585
1 18.7074 25.0499 1.09802
1 22.0015 11.513 11.521
1 28.7033 27.7629 27.1714
1 30.2176 0.210275 10.9877
1 0.962559 28.5474 2.24463
1 23.6784 25.1845 1.5132
1 1.03096 24.9254 11.0875
1 29.2376 17.0168 20.4063
1 2.415 3.80562 22.4229
1 14.7649 19.584 9.58472
1 3.35459 11.1605 1.36871
1 11.0425 28.7745 4.21747
1 18.6329 21.5546 28.4864
1 7.49765 23.7421 28.1992
1 24.573 7.17165 1.48497
1 29.3331 6.49996 26.8845
1 18.5024 22.8208 22.1915
1 28.7873 25.452 9.08383
1 18.917 2.11366 12.4106
1 29.6557 0.911482 16.0422
1 20.7433 19.1731 9.48942
1 28.7687 29.2878 22.5415
1 20.7834 28.7138 23.4095
1 22.2034 8.45452 22.5508
1 4.95522 28.7531 18.8018
1 25.8254 18.2315 6.51421
1 8.41755 17.0147 28.4341
1 22.3215 5.27267 3.21766
1 27.705 10.1577 13.7154
1 24.4495 20.7216 11.1102
1 16.5489 4.04951 24.7792
1 20.0069 9.29523 18.1159
1 30.1804 5.37763 9.24747
1 6.16363 26.5761 24.103
1 26.4397 10.5273 8.57062
1 7.54566 23.7305 21.5283
1 29.6637 18.5665 18.2185
1 28.5324 15.4282 3.1942
1 18.81 12.9487 23.5664
1 14.5029 4.05653 19.5466
1 17.336 28.4017 25.5009
1 3.80087 22.9848 13.4561
1 20.6493 22.0421 18.0635
1 15.8149 26.3752 29.005
1 11.9724 3.92979 29.5331
1 7.68357 14.877 17.175
1 22.7618 10.5622 0.392399
1 4.27398 7.89064 9.14019
1 0.260624 0.178194 25.7505
1 17.8351 1.64849 15.789
1 25.3074 12.5817 7.98771
1 3.30132 12.338 8.7147
1 6.06272 5.91048 19.3311
1 14.2232 27.0188 23.7261
1 27.836 8.42671 10.2575
1 10.7766 8.34197 4.43531
1 14.6659 7.08694 20.5626
1 0.518562 3.56228 1.48265
1 4.85523 18.2481 26.0243
1 9.89386 8.34713 13.4967
1 28.1788 30.3482 4.881
1 11.3377 17.8251 26.1827
1 17.692 20.9057 17.4823
1 13.8051 1.36629 7.6396
1 29.9685 8.5332 0.220188
1 6.99694 7.67988 18.2585
1 11.3574 16.8732 16.9553
1 26.9313 19.7625 25.2184
1 1.73745 12.4214 8.91095
1 24.4581 16.5724 26.8287
1 19.271 14.2131 25.9588
1 5.13421 13.2579 7.77547
1 17.238 3.41566 13.0104
1 10.1175 9.8643 3.67647
1 28.8241 26.9229 3.67638
1 4.90541 24.3523 21.6524
1 24.726 1.99928 19.8675
1 13.9783 7.49345 21.6258
1 5.15424 12.7384 11.1647
1 10.5868 14.6278 29.8066
1 8.50152 12.3828 28.6442
1 25.0333 19.0275 11.1786
1 7.57612 17.4771 20.7153
1 6.97779 8.23545 21.8085
1 4.96739 30.2997 28.9575
1 7.09632 17.397 9.77595
1 13.7056 14.7943 22.9577
1 30.373 16.6538 19.938
1 4.43061 23.7693 17.9577
1 17.4968 1.20161 27.0672
1 4.84907 9.35651 16.7285
1 18.4689 13.3708 9.63249
1 27.7703 3.47742 22.0705
1 18.4882 22.9968 18.9982
1 2.04307 28.2771 20.8169
1 21.4362 8.97114 26.0509
1 9.5884 12.8205 27.6854
1 0.424303 9.69827 13.1797
1 5.93534 15.4344 27.7177
1 5.5522 15.8669 5.20048
1 1.75338 11.8986 14.9336
1 2.15984 22.8688 11.9149
1 13.598 2.06589 20.3998
1 19.3694 12.1521 13.8069
1 14.4458 0.765204 13.7297
1 11.8891 12.9922 17.7001
1 10.9982 7.95917 16.8182
1 13.2862 2.53948 27.9209
1 8.59647 1.30736 22.2456
1 18.9839 2.90961 17.8447
1 27.8673 17.8492 16.1058
1 29.0853 2.7906 4.25639
1 19.3599 12.8079 3.2518
1 7.7973 25.0587 6.10403
1 21.9144 19.817 25.3533
1 3.18161 8.9728 25.6215
1 12.0128 25.7997 9.10121
1 1.12981 7.85631 11.0397
1 6.2424 4.74984 6.03895
1 14.3727 16.1202 22.0439
1 27.4476 19.2372 9.04109
1 25.6511 0.711794 14.6443
1 12.5893 19.707 14.8067
1 13.9982 20.9983 13.2783
1 7.57718 18.6639 23.955
1 14.5213 18.7597 21.5584
1 10.1911 17.3208 13.5542
1 1.59391 14.6344 15.6204
1 26.6107 10.9794 2.05442
1 14.4175 28.4345 14.6564
1 1.17714 5.37224 5.45257
1 23.4292 6.82747 5.57727
1 30.1861 15.0508 20.2028
1 22.5073 26.0401 28.5283
1 2.40609 28.884 10.5232
1 24.8194 27.6112 28.5769
1 9.69574 28.2768 10.8495
1 23.4536 27.0892 6.25118
1 16.6292 3.42618 17.1144
1 0.26014 13.8474 5.99468
1 3.08301 13.8474 23.7872
1 14.3327 3.96896 15.2531
1 23.1028 9.49116 12.0498
1 30.0958 8.69655 9.5665
1 9.26277 14.7899 8.24502
1 25.7439 24.6804 25.0864
1 1.72082 17.9028 27.1205
1 19.8841 7.14873 14.5891
1 27.0058 10.736 29.9257
1 26.1703 2.20013 27.5494
1 29.5904 24.4463 21.468
1 5.83709 16.3644 14.4521
1 26.5713 11.1121 21.2018
1 4.98116 0.345344 16.9578
1 13.3868 5.59004 14.3998
1 13.1824 28.7703 15.5759
1 9.57193 6.18732 14.8627
1 18.3996 14.1311 12.1348
1 20.0751 26.8178 21.9264
1 28.2262 6.06823 11.4685
1 3.13374 16.5209 4.44912
1 22.9529 2.89398 7.74506
1 9.90669 0.640901 12.6311
1 10.9374 15.8188 3.59049
1 8.86768 14.0559 10.9482
1 2.47302 8.6882 13.0027
1 15.0721 7.68872 19.4911
1 27.3787 14.0149 22.6246
1 18.594 13.7081 3.44185
1 1.0162 8.90072 19.1205
1 18.543 8.66483 15.9262
1 25.6263 17.7283 18.7051
1 13.0824 0.746639 10.0695
1 21.8298 4.70669 12.4896
1 20.6235 7.0552 19.4125
1 7.04827 21.9564 2.45047
1 19.9826 21.6509 28.4522
1 3.20123 5.85943 16.1685
1 7.64991 6.02359 16.2132
1 4.20362 2.87643 6.43013
1 3.9602 26.6369 14.9224
1 16.7662 17.0425 25.41
1 9.59792 26.1055 8.54405
1 9.13745 16.1356 21.4998
1 3.38531 20.2874 29.683
1 13.6239 20.7749 22.6129
1 6.3276 18.4585 18.5612
1 7.57815 23.12 12.5517
1 3.96224 4.5396 24.508
1 16.6853 24.1118 22.3765
1 10.7037 19.4669 7.76207
1 24.2397 3.94721 23.5662
1 10.433 11.2044 14.7859
1 11.2705 13.6268 28.9195
1 1.31513 5.5616 26.7509
1 20.2156 29.4866 29.7042
1 1.89635 11.3545 6.23145
1 7.56332 27.3069 3.08802
1 18.0579 5.4723 28.8724
1 2.46256 19.0649 29.5779
1 27.9994 8.10531 15.7598
1 3.94388 13.4554 25.1908
1 9.46453 21.045 5.69391
1 1.63016 9.15919 1.14464
1 17.6673 8.29895 18.0818
1 19.4356 16.2634 9.72592
1 14.6134 0.161085 6.92247
1 28.351 26.4158 6.12373
1 0.417708 27.1793 1.58824
1 18.8212 0.645316 27.4857
1 8.82572 8.38123 25.8021
1 30.0715 9.55247 22.1192
1 19.7783 25.4817 2.07259
1 26.3867 29.0576 21.8714
1 15.2311 7.9883 29.1669
1 20.4638 23.9091 5.89297
1 7.44681 19.9601 11.5707
1 5.93292 15.6483 18.8879
1 9.61152 17.1238 0.685179
1 27.1961 16.4625 21.4983
1 27.8499 23.4864 16.0058
1 12.2433 5.99163 14.0621
1 5.18686 20.5612 10.9515
1 16.7892 13.3869 1.39058
1 9.16973 7.54194 19.7968
1 2.36889 16.1551 19.7314
1 22.992 14.991 14.4599
1 12.2314 7.70237 9.58512
1 6.02842 29.4058 28.3065
1 15.2269 11.874 27.4165
1 19.6823 19.9336 13.3823
1 8.91261 11.4126 25.1478
1 20.3933 16.2393 18.4259
1 7.56989 5.46028 10.9854
1 4.43922 5.54914 22.0681
1 1.26733 22.4969 13.8154
1 21.2609 4.89179 19.6705
1 0.67491 0.931593 17.3612
1 3.59124 4.16405 8.61133
1 2.53942 12.3967 28.1597
1 21.2364 29.2473 26.2606
1 22.3776 2.80327 19.0685
1 13.8807 4.9165 26.6885
1 21.7387 16.7067 22.8035
1 9.6524 16.6164 18.572
1 13.9443 24.6576 28.3078
1 11.9415 29.1866 18.8325
1 28.0424 27.1797 15.6676
1 4.62404 15.594 0.991619
1 9.61064 10.7834 19.6075
1 6.78671 26.7751 27.3019
1 9.63194 25.081 0.497395
1 6.4346 22.6428 26.1463
1 11.3345 28.9651 8.16907
1 29.5456 13.7172 11.9304
1 26.0453 24.6674 30.1267
1 22.8905 7.46386 22.0798
1 3.38686 14.0847 26.427
1 24.4298 9.57547 21.9564
1 11.5915 27.2907 25.0801
1 21.5305 9.50602 2.0399
1 1.12294 28.9427 9.63569
1 21.9726 8.53661 17.4596
1 29.2099 13.2047 5.88959
1 12.1114 19.2549 11.1575
1 5.95231 13.9786 6.23139
1 29.6539 5.10379 22.3638
1 24.0007 14.8913 22.5997
1 14.1397 26.8118 12.4843
1 15.8616 11.5885 15.6141
1 2.86648 12.8379 12.216
1 19.2588 5.25831 10.9832
1 14.0395 4.91573 11.8318
1 26.8097 6.1729 1.15073
1 21.1202 28.9774 1.45778
1 9.53489 21.7595 10.8221
1 13.0138 25.7411 4.23071
1 21.4597 26.6617 26.7447
1 6.51156 3.16392 10.493
1 15.6328 3.2523 1.40591
1 25.9977 5.12873 26.0415
1 15.374 10.7038 20.4541
1 6.11224 1.80323 8.28833
1 27.7797 3.89845 20.0831
1 23.6538 6.77518 27.4742
1 30.1776 25.3391 25.4345
1 10.2371 25.5608 26.2427
1 17.8262 24.4285 8.9565
1 17.3227 20.6524 8.41515
1 18.9618 11.3368 29.1434
1 8.43391 19.3457 26.2718
1 9.57095 12.0811 15.1858
1 16.6527 22.2762 15.0619
1 22.2305 18.4242 7.00566
1 26.3383 2.64032 26.3202
1 0.940191 26.4752 18.5382
1 13.7219 28.966 6.89102
1 27.622 25.8625 19.4934
1 29.4774 16.2487 22.7421
1 20.13 22.0992 16.7457
1 30.3013 15.5898 0.48633
1 16.3032 24.3891 5.50241
1 22.7968 4.73737 9.3009
1 1.48107 9.20149 28.9026
1 13.7293 14.1973 6.29831
1 25.4826 5.77615 28.4098
1 13.8174 7.61616 26.9568
1 15.6058 29.5153 17.2976
1 17.4837 8.28608 29.8526
1 16.8521 9.07454 14.1202
1 21.5639 21.5315 8.11163
1 2.09154 14.9393 24.047
1 3.25869 1.42372 9.64057
1 18.791 25.851 10.6415
1 8.43822 16.9994 19.1143
1 30.3453 16.1427 17.4856
1 7.67152 4.2783 30.3404
1 19.6887 4.37343 22.2198
1 12.2613 19.9491 18.6609
1 6.67813 6.54693 13.6362
1 23.4413 20.4013 20.1317
1 19.6924 11.7582 16.2411
1 1.20835 23.4067 15.0108
1 14.1938 15.6332 8.78787
1 17.5798 27.8543 21.4879
1 10.4938 20.3443 23.7136
1 17.9539 29.0617 3.46624
1 18.633 24.8469 23.4204
1 27.0046 28.5419 24.0112
1 10.0641 20.4667 27.1876
1 26.7007 17.164 19.4915
1 28.3736 11.5606 16.2211
1 20.9745 14.9339 17.8942
1 5.06287 6.10491 1.0029
1 10.9858 11.6702 2.41884
1 16.0933 23.0512 16.2112
1 16.6809 10.7343 18.2242
1 14.1226 1.94824 5.10406
1 0.503688 13.067 17.0371
1 25.9861 17.5642 17.2185
1 25.0858 14.2402 4.8512
1 18.2175 12.8422 13.0186
1 20.4793 23.5812 12.7747
1 26.5861 8.55029 28.6588
1 14.1954 18.5966 30.2109
1 18.5729 19.7292 4.15526
1 10.7359 25.0231 12.6902
1 3.05311 28.5117 23.6578
1 14.1955 13.1264 11.2272
1 25.0422 6.00639 20.8422
1 10.6264 18.278 14.859
1 3.50058 15.1306 17.8287
1 30.0076 16.9349 4.92395
1 9.10795 9.59206 5.98535
1 26.505 26.4848 14.1002
1 23.1777 22.6278 19.1251
1 21.8351 24.4471 16.8063
1 22.7974 8.33144 12.4063
1 29.3047 15.5718 4.50429
1 21.4728 1.4557 6.50828
1 29.0115 6.48438 17.5551
1 22.4343 3.05804 11.1446
1 2.95815 12.302 17.0183
1 22.3766 28.9026 7.27281
1 16.5462 15.2542 19.0245
1 18.8547 11.3177 3.46416
1 26.5484 5.36738 9.66525
1 13.6888 16.3413 17.1874
1 23.8735 4.31138 20.0344
1 15.5915 1.88752 23.8696
1 28.7914 25.476 23.4295
1 8.30141 20.5665 12.6319
1 17.4015 6.37184 7.86368
1 6.79135 26.0992 5.49889
1 16.0262 6.94789 26.8752
1 2.82834 17.4737 18.1567
1 6.20706 8.80218 29.1003
1 8.40227 12.7072 3.39779
1 18.045 26.7342 20.8272
1 30.2255 9.87047 11.841
1 20.6408 6.17163 8.86613
1 0.952221 4.83932 7.09129
1 27.1248 6.91738 24.9864
1 8.60964 17.7112 24.3098
1 21.5982 23.4216 28.1904
1 9.36824 29.7859 18.8642
1 4.22684 5.8603 5.80943
1 16.2464 10.4314 10.4062
1 19.7806 20.6672 6.02932
1 14.391 13.9677 3.68578
1 26.5119 8.76923 1.47709
1 2.82957 1.94779 19.3356
1 4.00688 15.6389 16.4876
1 2.01541 13.4955 19.0507
1 21.9529 8.4048 8.51437
1 14.0704 23.1617 23.8367
1 7.20431 0.303768 11.6352
1 13.2042 15.9562 19.6297
1 22.0337 22.9273 24.026
1 24.7949 17.4669 16.6925
1 20.7422 16.4428 29.627
1 12.1899 28.5478 12.4787
1 12.999 15.1206 7.07891
1 0.255064 13.34 12.9427
1 4.80347 29.4262 17.5761
1 27.2123 0.186582 3.98806
1 14.8872 13.8 10.1988
1 5.47404 10.2668 20.8169
1 7.86306 29.9166 30.0116
1 6.25229 18.5919 13.3615
1 21.9012 12.146 28.6677
1 3.58696 17.3863 25.2887
1 5.48578 16.8915 18.4026
1 20.9063 2.27475 1.41629
1 0.514666 22.3797 29.9724
1 17.4623 27.9736 11.8737
1 15.4289 27.7644 3.30069
1 9.78328 11.0699 0.259126
1 3.37141 22.815 5.29406
1 10.3613 25.1641 28.5553
1 18.1504 10.8841 21.8135
1 18.5681 7.15952 17.8616
1 16.9907 19.9614 6.90831
1 29.1208 12.1921 13.6732
1 4.67737 5.97094 26.6364
1 16.5234 24.0709 29.3199
1 14.276 25.4032 4.14497
1 14.389 28.8637 10.4104
1 19.9549 2.52573 3.86356
1 29.4711 0.183285 15.052
1 24.3965 20.1429 8.28032
1 16.7752 27.9973 8.68377
1 7.65247 11.4373 7.6536
1 17.2562 3.19412 6.30746
1 28.5951 28.6386 29.8948
1 21.3642 26.7372 7.25358
1 12.4409 11.2081 4.13363
1 10.875 27.9077 22.4593
1 18.7235 2.72051 4.71297
1 10.3692 21.8859 8.85806
1 26.7655 14.9838 7.11543
1 25.7189 15.9071 9.65325
1 26.0962 4.46004 3.52215
1 5.10174 20.7537 3.69894
1 5.88375 14.5779 8.4497
1 21.1834 11.9928 23.9814
1 1.53643 0.836056 2.65951
1 23.3393 19.7158 13.2758
1 15.5207 1.28759 11.4902
1 30.1604 8.46341 7.30083
1 27.6907 18.7378 14.7886
1 8.76863 8.49522 18.4714
1 8.16075 14.32 29.0507
1 9.16982 29.6474 13.0374
1 5.78112 5.73809 24.3425
1 28.0006 0.174325 6.21134
1 11.0499 23.5779 15.5847
1 0.844505 10.3647 17.4747
1 22.9342 25.5491 12.8806
1 19.2627 20.6099 19.7949
1 27.1542 24.1436 5.30557
1 4.0844 8.1995 11.3745
1 23.2306 23.0722 23.1582
1 19.2062 24.9902 14.7135
1 3.38967 1.67058 0.320984
1 22.0456 19.5442 12.439
1 8.35883 28.8818 18.1054
1 29.806 20.3961 3.90015
1 29.2187 24.167 13.9694
1 12.1367 18.7059 12.6735
1 17.5414 11.6387 7.96878
1 12.6838 21.1979 1.59156
1 2.1434 10.6203 14.5299
1 2.9431 2.93347 30.315
1 23.8332 17.3959 21.1161
1 12.9337 15.5914 4.59616
1 29.2878 12.3819 8.39637