4096
Atoms. Timestep: 60
1 24.213 20.298 12.6669
1 25.3822 8.87635 12.9615
1 13.5843 8.61736 26.0448
1 16.0418 2.91985 7.08378
1 24.6519 17.3297 9.75057
1 9.88313 21.856 26.0474
1 29.4491 24.7521 2.34338
1 12.2144 20.3232 1.01698
1 8.28546 11.4514 18.7885
1 14.7556 22.9671 2.52121
1 7.60947 21.8813 3.24739
1 21.7552 24.7353 10.1907
1 3.6439 15.914 13.0995
1 2.32365 1.75007 5.62292
1 26.6498 12.5962 3.13133
1 23.6054 2.43084 10.4709
1 29.2831 4.46037 22.4031
1 4.77049 7.47896 27.2968
1 13.852 1.89777 9.44687
1 17.5453 6.62583 13.4216
1 9.20969 15.638 6.35672
1 26.3276 15.2513 11.9189
1 4.30401 29.7062 6.25767
1 26.2541 12.3279 22.6838
1 6.6152 12.9361 23.8046
1 17.6755 15.0343 1.70222
1 24.6625 28.2658 26.3932
1 24.8811 22.4772 4.11218
1 25.2792 10.5051 2.499
1 13.9873 22.8662 28.7796
1 6.53987 14.8099 4.46598
1 18.2275 10.541 5.98714
1 16.0453 28.172 19.9629
1 7.4769 25.0653 29.3681
1 20.28 2.02616 7.35349
1 7.83733 20.4234 7.81074
1 27.0611 24.6371 15.8751
1 23.2982 29.1186 0.564962
1 25.582 3.05918 13.0872
1 6.56215 4.57125 10.0162
1 11.8976 4.81879 20.398
1 5.55778 1.62911 8.3935
1 9.45024 23.2672 18.5197
1 5.61861 2.43612 3.44156
1 18.6 12.5923 5.07737
1 26.593 1.11452 5.1635
1 17.2242 21.4846 20.6443
1 12.4127 6.06632 21.1022
1 26.1135 13.9423 15.4674
1 23.4126 20.8118 11.456
1 8.14239 8.14387 30.2146
1 23.6649 11.292 8.31599
1 23.4506 29.6171 8.79871
1 8.54609 27.0207 24.6659
1 17.859 20.1177 12.2995
1 29.6512 14.891 26.2495
1 15.062 7.64219 26.3238
1 2.99395 8.68456 4.57842
1 15.6191 9.45148 18.3303
1 28.6848 29.3378 12.9471
1 9.5066 19.0538 29.9252
1 23.0667 7.49537 3.4765
1 14.9932 1.82595 5.04174
1 8.62181 25.261 6.06297
1 23.1606 11.8206 21.1521
1 11.1426 11.9014 21.5815
1 0.570882 23.7833 26.8084
1 12.2485 10.1239 24.622
1 9.76471 7.31924 20.1282
1 15.5623 27.5211 16.31
1 29.5648 18.4349 6.98219
1 24.3072 20.6357 19.8984
1 16.3536 23.8317 4.93851
1 21.0797 14.7301 21.4756
1 23.5278 20.3345 16.5551
1 3.25342 2.91031 20.1225
1 19.9502 23.4925 6.43736
1 22.8696 21.5516 5.62448
1 6.04246 24.0821 27.0431
1 9.73338 25.4876 8.78348
1 12.8847 27.8395 16.3953
1 11.4347 21.6787 8.71978
1 16.8167 17.6421 4.02255
1 12.7652 8.16507 16.5241
1 27.6405 29.5039 13.9929
1 21.8846 28.8799 17.212
1 15.2206 18.4684 7.45052
1 20.582 27.9994 24.0417
1 26.3546 23.3789 15.529
1 5.41534 28.4854 3.28387
1 10.0465 30.1206 10.4572
1 12.1195 6.07639 7.03399
1 25.6844 29.197 6.21763
1 21.0662 16.6305 23.4507
1 3.90889 1.45257 20.4238
1 14.5004 27.4669 10.5859
1 15.2742 5.77407 2.1441
1 16.1686 18.7987 25.0222
1 1.02737 27.8373 5.75605
1 14.7228 29.1321 29.4634
1 11.8173 1.19752 10.7955
1 14.3517 0.361544 17.831
1 9.07374 11.3816 24.739
1 9.64549 5.52823 21.5442
1 22.955 10.9742 28.7935
1 15.7886 28.504 17.4417
1 8.09833 28.3011 9.72119
1 1.92794 12.8689 24.3073
1 22.6964 29.1568 27.8206
1 9.58699 27.5682 7.70674
1 16.2943 9.71225 7.34875
1 1.23317 20.7882 4.25552
1 4.80559 6.67498 12.8882
1 26.7204 23.3072 19.001
1 28.6055 20.684 14.7714
1 27.4955 14.8068 4.45928
1 1.02643 0.760964 10.1267
1 17.3856 16.3576 25.0162
1 9.54144 12.9049 20.2466
1 4.37675 21.841 6.31184
1 20.1795 23.5788 18.6069
1 9.17406 17.5978 13.6722
1 5.41265 23.5797 14.841
1 28.1323 19.1408 20.8987
1 15.9825 2.68894 28.4373
1 23.5298 15.5591 12.9006
1 10.8754 13.1493 21.0685
1 14.0065 18.0083 5.57339
1 26.8351 12.0425 14.3815
1 11.5259 18.6712 16.2904
1 4.56284 1.95567 23.3804
1 19.501 19.2644 7.74014
1 10.1953 11.9886 2.94452
1 29.2533 2.78969 29.7092
1 10.125 21.0755 16.9392
1 6.40188 12.8168 25.2668
1 3.50473 4.15354 25.9911
1 10.3817 8.24782 21.1875
1 15.1546 15.3262 7.30843
1 15.1063 0.306295 12.2163
1 6.01966 25.2265 8.78188
1 24.367 16.4238 3.28302
1 24.5714 21.4658 16.9494
1 27.9227 12.4981 26.0696
1 4.85443 9.28181 24.6093
1 21.3182 26.1105 28.3144
1 27.9326 23.8245 5.50156
1 1.01817 28.45 18.1489
1 6.56937 20.494 18.229
1 4.00313 13.7525 13.8224
1 6.64808 29.2953 23.0041
1 19.3765 21.8014 2.73556
1 22.871 7.72145 0.7915
1 15.7315 2.09164 2.6002
1 13.412 15.435 17.531
1 23.9034 8.12184 16.479
1 6.86576 26.6346 16.0804
1 4.6684 29.6384 21.8932
1 0.643129 8.17298 2.48631
1 17.7064 20.916 7.53963
1 11.319 7.70925 4.40848
1 29.0722 14.0637 9.09383
1 11.3002 7.77969 25.4063
1 1.01106 19.169 25.9284
1 26.7628 20.5963 19.692
1 21.092 25.0209 1.50544
1 25.5806 21.3305 19.6066
1 20.8383 7.65218 2.14454
1 29.1358 24.857 4.8506
1 12.3319 7.16879 20.1955
1 11.2902 10.7173 20.34
1 13.086 13.5983 3.53191
1 21.1003 8.08646 8.65218
1 8.54648 17.3012 27.8714
1 27.004 27.8604 29.0934
1 6.99058 14.623 3.15295
1 6.86129 27.3777 13.1968
1 5.65742 6.3041 7.98966
1 30.1807 26.9912 14.1957
1 13.7042 19.4978 10.3258
1 7.43041 18.4821 22.3415
1 12.3616 20.0445 8.51019
1 7.92915 8.25945 13.2093
1 15.2312 29.1312 4.77344
1 3.0949 16.9892 22.4253
1 15.8511 17.803 28.0069
1 23.3861 29.7674 24.8183
1 3.99914 8.23803 20.4411
1 29.112 22.2688 28.0346
1 24.3638 23.5276 18.6776
1 25.9714 3.29558 10.088
1 0.6801 21.5475 28.8477
1 4.68167 12.8111 16.1665
1 12.6856 4.38486 14.5715
1 22.7543 16.7439 21.7024
1 13.5576 17.4603 27.9948
1 27.1473 3.49363 20.8745
1 24.4311 27.017 7.81951
1 29.6487 29.2944 0.636892
1 22.5816 2.57307 6.76653
1 1.2774 7.03596 30.1734
1 6.67323 20.9217 3.77576
1 28.766 29.9246 11.5114
1 22.0513 2.95466 14.969
1 14.5388 25.9067 22.7328
1 17.9973 28.7713 0.369125
1 4.99851 15.2535 15.2283
1 17.02 22.3015 2.09053
1 4.93575 17.5066 1.13423
1 22.9306 19.6347 22.8044
1 3.7174 26.8917 18.4084
1 13.7365 9.78087 21.1755
1 10.6362 29.4664 21.7349
1 3.71145 28.7608 27.0211
1 30.2975 15.2045 10.5077
1 22.2423 7.56932 8.95832
1 3.66182 17.0291 29.1705
1 12.1721 12.7124 10.8882
1 12.1349 16.5501 13.1704
1 24.1841 27.0059 11.8695
1 19.2616 18.8256 25.5915
1 28.0849 26.363 7.64815
1 6.0111 21.4518 17.1536
1 16.5288 10.5625 27.6085
1 4.03538 25.5125 27.4751
1 10.6346 12.8564 28.967
1 19.8665 14.601 1.83307
1 2.04405 22.4603 7.58011
1 26.4528 23.4143 29.8924
1 14.4064 6.60051 14.6262
1 17.0458 10.9656 14.1188
1 29.7966 22.8452 17.0636
1 24.8803 23.8103 15.7934
1 1.0453 8.85576 18.4124
1 18.6977 7.50592 11.2234
1 25.7962 26.7036 4.92883
1 24.2581 28.7558 8.01297
1 1.65394 16.1085 6.46826
1 10.9475 11.0158 7.4582
1 23.3018 28.442 20.4881
1 7.35105 3.33794 0.623503
1 9.97627 1.75039 15.5216
1 6.57266 7.28777 16.983
1 0.263575 4.03431 1.5858
1 20.3735 23.0978 8.01679
1 22.8214 20.9977 23.6539
1 30.3653 6.73951 13.8249
1 9.98147 6.09172 13.0975
1 6.41188 26.8784 18.7677
1 24.498 30.3908 12.6045
1 6.24235 7.21563 25.3132
1 23.322 23.7192 24.4211
1 22.9793 17.7923 29.2421
1 10.5743 7.19904 11.2735
1 7.87162 23.353 3.45227
1 15.2782 10.6437 7.22887
1 20.0685 8.22819 9.48778
1 25.4129 27.1562 3.47819
1 26.4616 12.968 21.5343
1 14.0552 14.6181 20.5382
1 15.9155 2.11388 24.8865
1 3.94693 0.649579 6.64705
1 23.0144 27.069 12.9911
1 25.2358 4.53474 1.01153
1 12.1855 22.454 4.20705
1 10.5546 19.6883 15.9933
1 9.41783 20.0412 23.6925
1 12.811 10.9294 3.55087
1 23.816 18.7146 24.9458
1 15.3505 15.2237 4.84745
1 28.4234 10.7144 21.3097
1 1.61965 7.47375 6.88747
1 6.89162 13.4106 3.01705
1 3.57518 0.920858 14.6461
1 9.33745 4.47341 15.7687
1 28.2302 18.1792 6.69807
1 29.8514 0.713854 25.5285
1 22.8172 2.98915 16.227
1 9.30586 26.7709 0.745866
1 14.6015 26.0001 29.7272
1 8.37784 0.94157 1.71568
1 10.7367 28.185 13.5749
1 6.19938 10.2083 3.36152
1 4.47144 8.63319 7.68721
1 20.3232 26.0741 2.01106
1 2.39805 13.6084 13.3615
1 16.7261 19.7166 0.17866
1 3.99257 5.88597 0.213133
1 30.1822 4.40228 10.9026
1 6.53995 28.8179 13.8839
1 6.4448 27.2867 2.73276
1 27.6751 12.1678 16.1615
1 17.2169 10.7485 19.4984
1 28.5066 1.45097 25.5454
1 24.0158 16.5094 11.8945
1 4.37826 21.5984 7.61159
1 12.6699 16.3336 7.09415
1 21.4766 6.58643 25.9975
1 29.836 12.1226 24.537
1 7.11944 25.0159 1.14639
1 9.42094 20.7994 8.29926
1 6.24346 11.4732 0.949133
1 23.7878 10.9177 29.8209
1 18.9214 6.22201 15.2175
1 28.0553 1.71233 15.7304
1 14.5585 14.8486 9.6446
1 9.41629 9.88983 19.9599
1 17.162 20.693 10.078
1 28.5887 22.4195 17.6917
1 8.02962 13.575 28.4769
1 25.3989 10.0842 9.50379
1 24.3813 1.90647 21.444
1 14.8325 11.3041 29.2998
1 18.1303 18.4072 26.3171
1 16.5772 17.0014 11.071
1 4.29039 25.8403 19.2338
1 2.19722 28.0146 4.99375
1 6.47577 27.8629 22.716
1 18.7582 28.6808 4.71716
1 11.0024 0.27556 11.4085
1 8.30756 22.2536 18.207
1 3.1279 25.8422 21.6393
1 25.2429 19.3069 15.3724
1 4.22269 12.902 27.252
1 20.524 13.8675 22.603
1 28.0794 24.3983 23.5296
1 17.6842 9.76083 7.14256
1 13.7187 1.42988 0.306987
1 6.50399 28.4855 4.35824
1 26.7461 20.4485 23.5673
1 11.0333 6.95044 6.97623
1 0.637249 13.2425 27.6506
1 6.33593 4.22634 28.4279
1 11.6426 25.8853 21.2443
1 4.9378 1.33592 0.313566
1 29.9318 14.4667 0.481891
1 18.3194 2.2158 1.70332
1 8.83803 14.8361 23.5135
1 8.8411 3.35557 11.3508
1 2.65811 8.05854 24.1454
1 28.7607 16.2212 11.6805
1 6.6172 9.88987 29.5024
1 25.4988 16.0044 11.1866
1 19.3581 9.69776 28.433
1 22.8817 18.6113 20.0524
1 7.79738 8.43706 27.2115
1 15.3577 3.98673 21.3927
1 13.0275 1.70336 28.7452
1 7.68821 16.2415 25.6204
1 19.2172 14.7062 24.3734
1 17.8137 20.1671 16.9537
1 16.3991 12.6994 30.0735
1 1.31478 17.1754 8.65048
1 1.08582 2.3068 17.0077
1 4.90521 4.14452 13.3302
1 7.41979 14.2711 6.32609
1 18.7527 3.39089 4.4955
1 14.0175 23.6908 24.2908
1 4.7091 25.2857 8.42165
1 8.21775 4.63536 11.8773
1 26.3534 16.4269 18.6293
1 20.2316 24.5187 25.51
1 5.0537 28.0714 21.9937
1 24.2082 5.77183 0.267712
1 30.2835 25.5341 16.0072
1 12.7771 22.8493 17.1374
1 3.42953 11.0839 24.8644
1 17.8412 16.3995 3.91335
1 17.7674 0.656187 25.3279
1 2.96409 20.6575 28.8224
1 13.9457 29.485 14.8515
1 2.02314 25.4111 5.50532
1 16.7931 6.15623 17.2434
1 1.24822 1.74129 21.7941
1 21.2644 4.51311 19.2691
1 8.04713 7.76271 23.4751
1 14.0771 5.05747 14.0812
1 14.2245 7.91273 18.3177
1 11.4528 21.32 1.53451
1 23.109 14.1076 30.3784
1 21.8994 5.9158 23.0402
1 0.284217 16.6636 14.3524
1 13.8888 3.07905 9.97465
1 20.5681 16.4642 3.25647
1 23.586 17.3318 10.8335
1 21.0384 20.5619 12.2954
1 12.8304 12.3838 8.78178
1 29.3546 28.4938 6.89669
1 24.0639 10.3567 9.32755
1 26.1741 28.5744 10.1514
1 24.9781 16.9948 19.1282
1 12.6042 0.236225 21.7185
1 16.7853 28.0858 13.8337
1 25.5849 29.0085 7.75971
1 27.8409 19.2579 29.0151
1 16.3257 21.3557 5.88987
1 9.12283 20.2106 21.1441
1 4.53966 24.0941 16.1278
1 3.53976 29.1293 25.459
1 27.6063 23.0815 23.3398
1 20.3143 17.5089 17.1937
1 24.505 8.67658 17.3908
1 27.0124 8.9557 11.5925
1 26.2387 5.77509 21.8469
1 3.03662 17.0686 4.32028
1 13.4668 27.3392 28.0625
1 0.842633 7.48086 18.7731
1 27.4659 7.82454 21.9854
1 0.704987 16.313 22.5372
1 15.2007 25.7338 20.6047
1 11.3162 24.0097 6.70522
1 10.6799 21.8901 13.9597
1 8.67746 18.9636 12.2109
1 17.3026 5.07037 3.23383
1 27.0725 9.38235 16.8646
1 6.82673 7.12433 8.27324
1 23.6147 30.0859 28.5548
1 6.1862 23.1952 20.0415
1 20.0844 6.89634 5.63121
1 8.27996 24.2822 20.7127
1 0.725205 16.4773 10.9718
1 7.07493 13.4985 26.1831
1 5.28736 29.3663 2.07881
1 1.86575 7.0157 8.26121
1 25.6156 3.22771 11.4805
1 1.49958 25.6812 21.0211
1 19.985 12.5897 30.1994
1 3.63751 16.8738 14.4887
1 20.5513 2.78394 22.9912
1 8.30131 14.7725 5.32625
1 12.6618 10.5849 6.17952
1 26.7836 6.29685 10.3452
1 11.6444 29.4366 13.6728
1 18.8097 29.4898 29.9468
1 21.9131 10.7703 10.0332
1 7.59916 26.1509 24.0116
1 9.70746 11.9237 8.07665
1 14.3209 20.5643 18.2963
1 5.28594 8.90449 2.04614
1 10.7207 29.6244 16.1167
1 4.65243 0.565411 13.3725
1 18.4362 16.4438 21.5298
1 0.18294 2.17488 7.58319
1 7.11888 27.9626 15.8246
1 10.6307 15.9174 6.20666
1 0.433688 10.8136 17.8039
1 29.486 28.8852 26.8969
1 2.44973 22.2705 26.7482
1 29.594 4.988 1.09996
1 11.1158 26.0828 23.9012
1 0.412759 10.9541 11.781
1 3.23342 21.7754 20.7806
1 13.6158 25.7956 15.7471
1 9.17318 7.77336 24.7901
1 13.2471 9.49439 0.592457
1 4.52885 17.6488 26.7234
1 18.0024 11.5503 20.2882
1 3.1078 10.8514 10.5071
1 21.2902 12.6187 18.5326
1 27.218 2.6482 16.6558
1 3.02688 24.2579 16.2011
1 26.3996 24.6134 25.6312
1 28.8574 1.08973 19.2956
1 26.2661 14.0306 23.5716
1 13.308 1.18069 21.1038
1 4.34171 20.3225 22.3085
1 19.9745 9.58131 0.486712
1 5.14296 4.31123 22.3117
1 26.6617 23.8216 27.0787
1 22.7286 24.2569 12.9408
1 13.2967 17.737 19.0466
1 27.1499 23.6626 0.93386
1 25.3324 5.92379 12.2518
1 20.2094 0.330382 23.7321
1 24.2735 28.2264 29.9043
1 9.31545 13.707 4.69358
1 27.3692 16.7057 29.8685
1 11.9569 25.8926 3.8606
1 2.29014 11.7036 18.6558
1 18.9466 21.3194 28.3664
1 0.138657 3.5519 16.6178
1 24.7868 29.7909 15.4706
1 4.18583 2.5285 12.3426
1 17.666 20.9242 6.14339
1 20.6612 17.8682 28.2113
1 5.47254 19.7506 18.9087
1 21.2717 9.56288 21.6555
1 6.05719 13.0407 16.0598
1 5.97592 1.20233 11.3944
1 20.1386 0.935573 8.28835
1 30.4017 18.9773 7.89604
1 17.355 23.4084 14.007
1 10.1955 15.3527 8.47194
1 23.5185 2.94043 11.8674
1 0.370889 7.74263 21.3754
1 2.67822 14.8896 11.1579
1 4.91149 7.76689 10.4539
1 25.8665 25.5554 23.3274
1 20.9341 27.1816 8.89759
1 11.7015 6.49831 14.5522
1 11.4127 22.5953 2.10365
1 5.56374 26.2145 2.08224
1 18.8003 4.40324 0.206417
1 11.6439 5.06545 14.0281
1 4.60703 7.78205 6.50147
1 13.3255 10.0231 15.2119
1 28.1308 2.35929 22.4564
1 15.6868 22.0311 22.4306
1 27.632 7.87569 27.4724
1 20.9937 27.66 10.5298
1 16.5824 14.8437 5.01036
1 3.45563 4.83345 8.61378
1 10.8318 10.2626 2.71275
1 9.00406 2.26742 1.51369
1 9.37663 22.4083 1.02854
1 2.84579 15.8243 16.1906
1 5.59115 23.3282 0.467794
1 0.497491 5.92049 29.377
1 20.4573 6.14465 27.0411
1 24.6475 10.0572 17.5773
1 0.26886 25.5472 25.6918
1 5.68888 16.2315 28.6403
1 23.8654 6.81487 15.0169
1 27.9229 30.1372 4.85064
1 27.1754 17.714 7.60719
1 13.0323 25.1676 13.4043
1 16.6423 13.842 8.65538
1 14.6347 6.16911 24.2908
1 27.2513 5.9389 25.5344
1 11.6673 3.57911 30.112
1 17.7234 30.3118 5.9999
1 21.9756 26.3013 19.0927
1 10.0132 22.8474 2.52006
1 26.8144 11.669 17.4822
1 27.2294 10.6207 25.3639
1 3.98789 18.4814 11.6974
1 2.19446 28.4326 22.0193
1 11.6506 30.0503 15.106
1 12.9497 29.1396 4.26921
1 14.1273 7.89475 6.63212
1 19.5025 16.5153 16.7775
1 15.9914 17.34 12.1905
1 15.1506 21.9194 9.8601
1 18.5916 5.80639 17.6881
1 5.52967 3.38334 26.5884
1 27.2814 17.7683 13.342
1 21.6767 2.01055 13.61
1 4.87253 13.911 6.68067
1 26.6711 21.4673 29.3072
1 5.30887 15.3062 8.41618
1 7.19076 9.38567 4.18462
1 28.8801 15.2098 12.5289
1 16.8918 10.2396 25.5969
1 10.991 18.8343 19.8251
1 15.8105 8.75037 20.5592
1 28.7957 29.3421 16.2594
1 6.90139 8.06435 24.2229
1 3.11981 5.7754 5.21182
1 17.9592 23.4918 20.0775
1 5.2965 29.6473 17.9026
1 27.0529 26.9224 30.3314
1 26.1068 22.4118 21.5321
1 12.2044 12.2602 12.3627
1 5.83042 8.96898 12.4344
1 14.0774 28.2839 4.41035
1 9.07656 10.1525 13.1467
1 3.57946 10.8048 29.3966
1 8.4882 28.6953 20.5288
1 27.5178 19.3338 23.3325
1 9.86063 29.5849 0.178403
1 27.5544 6.41564 28.2582
1 6.05283 24.311 17.8324
1 1.9799 23.0451 17.1891
1 29.6908 3.29151 26.819
1 21.4922 4.19529 28.5201
1 24.2209 18.9979 5.56524
1 16.11 11.9265 4.118
1 13.4883 20.5268 1.07536
1 14.2447 10.4627 2.47124
1 30.2316 27.0762 24.8786
1 0.28443 0.938206 21.0917
1 13.7125 10.2777 11.8629
1 13.3704 26.8079 22.5342
1 26.5879 21.7947 27.8044
1 23.519 12.1349 24.7224
1 30.2738 18.6961 29.1047
1 16.0671 24.5101 20.2152
1 16.2841 6.44851 6.99428
1 2.3048 3.91456 6.7178
1 29.603 6.20619 3.38166
1 24.468 5.98136 2.53301
1 3.53176 26.2387 9.74491
1 8.04437 4.14131 15.2608
1 29.96 17.2592 15.4195
1 17.3306 12.3464 10.7618
1 3.02967 22.1951 2.6425
1 5.71476 4.50003 18.0671
1 20.203 24.9026 13.3897
1 24.1757 28.0364 3.38627
1 17.7153 28.6237 11.8293
1 22.0145 25.9222 25.3443
1 10.479 10.6348 26.8583
1 23.7652 5.77006 26.5921
1 17.2989 15.6456 13.4262
1 26.2163 26.2508 14.6179
1 19.7045 2.91194 9.90824
1 6.79882 8.47362 5.18611
1 24.0861 10.9255 22.0401
1 5.67005 17.978 18.9021
1 9.0586 28.8325 28.5333
1 29.8358 5.20822 25.197
1 28.9951 29.7215 9.14221
1 9.61373 23.8189 14.2866
1 21.8765 20.9401 18.5004
1 3.81416 19.1508 8.6754
1 18.0724 3.28952 23.4458
1 14.2653 14.0414 12.2347
1 19.615 27.5808 17.2598
1 11.4296 17.0179 7.06746
1 14.8297 6.1137 12.2462
1 4.05248 18.1288 9.88449
1 2.14066 2.89709 21.1039
1 29.911 22.8898 9.98846
1 3.85285 12.2648 29.7335
1 30.1145 3.00193 20.4457
1 16.452 7.5265 12.8677
1 10.5514 20.3046 21.1544
1 29.8598 11.1515 16.506
1 28.3968 28.6965 0.487984
1 4.20415 17.9084 18.9086
1 25.3702 18.3341 5.85046
1 10.0808 26.4368 28.5308
1 24.2931 21.0317 13.8356
1 21.2357 20.6036 29.9537
1 6.45754 10.4511 25.2588
1 20.4509 22.7982 1.22483
1 24.9181 25.3419 16.2452
1 30.272 26.0116 7.69066
1 2.14836 24.7537 8.75565
1 21.2653 13.104 28.0875
1 8.59767 29.5183 13.2303
1 13.1821 27.5493 20.104
1 1.82069 18.5066 15.2957
1 12.8322 18.5289 16.5927
1 6.87361 22.8498 27.2428
1 25.1137 25.7451 10.0377
1 4.38233 3.57501 7.85328
1 10.858 13.4429 17.4799
1 22.0225 1.77282 10.4106
1 1.93789 2.16869 24.3563
1 16.155 17.1856 22.4187
1 0.536848 29.9992 14.6634
1 26.2383 1.39709 1.49272
1 1.55678 11.8009 14.6535
1 3.27222 22.4618 13.7242
1 21.6589 26.4007 12.5544
1 21.607 29.1588 3.69603
1 11.0844 2.7112 5.2584
1 27.1412 1.01961 15.1752
1 26.4277 3.37211 3.64793
1 6.52353 5.11553 25.09
1 12.9419 2.32428 15.3313
1 10.1869 4.53136 18.1012
1 15.3653 23.0558 28.6697
1 30.1817 18.3093 21.3506
1 14.0628 27.6398 25.5492
1 3.70197 26.2604 15.3553
1 15.5082 13.3528 12.0195
1 26.4824 23.9516 13.2051
1 4.15299 6.33145 25.4284
1 25.5269 11.4488 14.4589
1 22.9953 21.4486 19.3168
1 3.71143 21.6531 27.6146
1 11.4661 20.2166 12.1891
1 7.63048 28.8117 28.9557
1 30.2813 25.0092 11.6032
1 24.9316 6.58949 26.1059
1 29.6101 18.9006 17.8716
1 10.5003 17.7011 4.59444
1 22.546 3.11096 21.659
1 25.1968 12.6525 5.39511
1 29.0416 0.32999 4.04358
1 23.3682 20.9365 9.02781
1 12.1436 2.1479 24.583
1 7.98572 24.4867 16.0713
1 0.435132 16.4346 18.6498
1 28.4915 27.062 2.27774
1 22.7836 17.0442 20.1845
1 7.24831 1.97748 17.5683
1 13.1576 3.35116 6.87259
1 23.9907 24.8135 25.0058
1 22.5099 12.5555 13.0501
1 24.7498 5.68397 28.9414
1 13.6208 13.5153 13.2744
1 0.206919 23.9512 16.3636
1 28.9447 22.2928 1.59965
1 27.9833 15.0494 1.65513
1 20.3927 4.88774 13.0371
1 18.397 20.7956 15.8459
1 16.7307 14.1872 6.23484
1 3.11846 26.4663 1.74023
1 7.90267 16.696 28.9162
1 4.57244 7.2492 23.1839
1 6.43535 27.8104 11.9497
1 24.709 7.97791 15.2805
1 19.6129 3.02491 17.5062
1 10.9795 7.09914 13.5227
1 7.83876 18.3857 9.89117
1 10.3714 11.573 11.9239
1 10.979 28.0146 1.69955
1 10.0775 25.7041 5.921
1 15.0786 5.61431 20.7881
1 12.2974 5.39907 18.9332
1 17.6818 17.738 29.8271
1 28.3695 27.4669 18.6114
1 22.6627 16.0405 4.99189
1 5.98432 6.08887 11.9909
1 16.6031 14.6431 15.7723
1 18.33 29.6768 18.3831
1 6.2103 9.35474 24.2844
1 8.54528 28.059 2.82559
1 12.064 17.9639 1.67725
1 17.0335 23.4462 15.6652
1 12.1497 25.2957 15.7202
1 29.097 9.83253 4.88325
1 17.6492 27.8954 7.05812
1 2.61475 13.7376 2.03166
1 17.3572 11.6529 21.448
1 5.6442 16.5056 21.7924
1 15.9556 15.877 16.5625
1 14.4509 12.2103 15.3192
1 11.6114 12.7153 18.6395
1 21.3326 17.4773 18.2473
1 24.5384 27.1824 24.3815
1 4.12739 13.3766 1.82956
1 10.8012 1.70263 30.332
1 5.38551 25.7117 29.9242
1 25.8821 11.6065 7.56656
1 14.5897 18.5433 27.8127
1 0.805981 26.4906 9.93618
1 18.8405 29.9399 27.5547
1 5.46502 13.3283 22.9696
1 5.9038 9.48108 19.796
1 1.70963 21.7194 20.6991
1 8.71026 12.7982 7.1513
1 27.8196 17.0344 8.79191
1 2.815 7.92505 1.45097
1 7.27544 16.6487 14.7809
1 16.9924 1.78083 25.441
1 7.61255 24.8746 5.06608
1 2.80928 29.7438 18.5471
1 9.61242 18.2817 28.6563
1 10.0982 21.8908 7.52051
1 18.4278 29.1039 22.073
1 26.0726 8.30255 6.97768
1 19.6485 21.6197 15.6539
1 18.1502 15.0869 22.0126
1 12.3711 26.3413 2.41548
1 22.1701 26.9805 21.9519
1 16.0016 12.2838 15.6845
1 29.4793 18.2001 22.556
1 0.863034 14.3137 16.5167
1 17.2771 0.859997 14.8063
1 26.2145 25.9988 27.3472
1 10.7379 15.2484 20.0727
1 21.9743 4.36718 14.4473
1 4.14484 27.1149 10.9239
1 19.9073 27.3928 18.6057
1 16.1673 10.0321 24.264
1 23.0236 24.8185 6.44761
1 20.2659 14.9985 9.35335
1 22.9166 16.4207 3.5113
1 12.9581 3.1416 29.3368
1 4.37202 5.37123 5.58871
1 19.1207 0.644456 16.3355
1 8.61403 6.54805 21.0202
1 12.9874 20.037 6.21432
1 28.7302 13.0828 27.2331
1 28.906 5.40272 5.44287
1 24.168 25.9156 17.3509
1 30.2399 8.83842 16.32
1 10.6256 27.2606 21.0751
1 15.7445 9.75347 4.97107
1 13.1699 20.8879 25.2035
1 28.5411 1.40791 3.21715
1 9.16626 1.30584 19.537
1 21.629 27.7069 3.57927
1 4.1206 4.18102 2.71609
1 30.4006 20.0477 10.944
1 1.26578 10.5197 3.58263
1 11.6836 10.4185 13.3608
1 28.8304 21.4717 29.7965
1 10.5799 23.6197 22.9076
1 29.1523 1.81523 23.2095
1 13.9812 9.28351 1.8109
1 0.984785 21.737 5.46197
1 12.0952 11.3775 23.7287
1 6.78489 21.1585 10.2031
1 16.2829 0.892229 12.6239
1 3.24675 5.18916 24.8628
1 28.6507 29.6457 17.6187
1 20.4718 19.2452 22.5287
1 10.4001 24.8599 1.44967
1 28.4991 10.3611 27.7964
1 28.2133 2.03301 7.23759
1 9.95395 26.9142 5.00392
1 4.22458 5.23698 9.78942
1 12.5612 12.1797 26.2596
1 30.0964 13.4371 16.1707
1 3.97061 9.83044 25.7771
1 24.9207 1.41048 25.4074
1 17.775 28.7273 9.27389
1 6.16171 20.7332 5.37971
1 18.5648 13.8553 27.9337
1 7.46664 7.30097 19.622
1 29.1475 1.7349 28.4777
1 7.56655 4.38619 5.35469
1 12.3241 23.2476 3.03429
1 18.564 8.73378 14.7343
1 28.9682 12.0518 13.0405
1 16.7712 19.9222 23.0206
1 18.3991 10.3349 29.3378
1 8.17555 15.2255 2.30169
1 27.6912 5.05345 6.1479
1 22.7537 22.4524 21.2678
1 5.15014 5.79529 17.67
1 11.6895 9.87382 22.7166
1 19.0728 6.18238 23.0005
1 8.74893 23.1458 9.33251
1 10.7723 28.2243 16.9221
1 7.08034 8.69913 17.7011
1 18.5152 18.5486 19.9571
1 18.9629 28.2958 9.48922
1 23.6199 9.60876 11.4757
1 30.0202 4.92989 12.2082
1 25.7027 9.95747 27.1449
1 28.5098 8.93684 28.1362
1 4.87686 13.5948 10.4812
1 26.701 22.4011 16.5594
1 3.4811 25.6497 11.2652
1 11.7485 22.9844 27.594
1 10.6528 6.31057 22.2892
1 12.8573 27.062 25.2235
1 9.20314 25.8771 12.6207
1 17.0701 26.6394 0.843553
1 10.2086 21.2555 23.6501
1 3.21704 26.6263 25.6156
1 9.83838 9.61204 27.262
1 13.4022 28.4915 30.1103
1 19.7461 28.3574 10.6431
1 18.503 12.9543 7.37714
1 27.2414 20.6671 26.3543
1 13.3536 12.7551 16.1129
1 14.2582 5.28516 5.24473
1 27.5797 24.4957 17.0712
1 21.9911 4.65701 8.20995
1 24.6244 10.7435 16.3212
1 23.4442 3.87654 20.6434
1 15.5238 13.8393 24.8454
1 6.14109 13.1914 10.8164
1 2.33289 9.73669 3.02864
1 8.86466 6.64821 16.937
1 26.6761 2.02091 18.0091
1 18.5093 23.4547 0.179132
1 9.48264 5.29581 26.8287
1 1.11596 27.9894 25.4078
1 2.16058 15.0689 13.1995
1 1.14651 24.5747 22.1516
1 17.4511 5.00125 11.4042
1 2.70328 0.45456 27.7907
1 20.3981 16.7874 14.3134
1 6.07615 28.928 15.2544
1 8.27441 10.6273 2.04654
1 21.9882 25.025 7.6157
1 17.2404 11.6163 27.1985
1 19.1732 15.3001 18.7329
1 23.6459 8.61789 6.95955
1 23.0851 22.4076 30.4106
1 17.3536 9.14841 26.7153
1 15.9081 15.9649 24.7298
1 23.2741 13.3769 1.63563
1 2.77665 13.0153 8.94159
1 5.08597 18.8255 0.881499
1 21.6299 16.4574 18.9974
1 8.56149 2.66446 3.92169
1 18.7974 24.4634 17.1491
1 7.86938 21.0145 22.5829
1 2.129 17.102 7.42319
1 15.6331 6.71697 21.4973
1 5.82719 10.6649 7.4489
1 20.6839 11.1594 30.3161
1 11.6106 3.99521 1.28796
1 12.4277 22.3549 12.2363
1 5.20221 19.7005 5.76177
1 23.6511 24.8117 21.732
1 9.50977 15.3581 19.2585
1 10.4112 18.1356 3.36366
1 21.0655 18.2611 12.5253
1 25.3915 4.08295 3.3158
1 15.9129 0.375239 9.06503
1 6.57106 16.7322 4.44656
1 25.6999 17.7052 14.9202
1 0.28962 21.5676 8.54349
1 29.9532 4.92377 7.60853
1 25.1611 6.48942 19.8929
1 28.4068 14.9056 14.9872
1 18.1276 12.1257 9.61793
1 12.5601 23.6471 7.36671
1 15.153 28.2898 18.9727
1 16.7056 11.4938 12.9894
1 25.5162 3.16431 18.4016
1 27.1462 23.4026 7.46085
1 19.0436 8.8651 9.14876
1 17.7547 14.3079 28.8863
1 8.05552 25.7796 15.999
1 26.5679 9.52348 0.972783
1 2.36263 6.89204 12.7481
1 21.5131 14.6338 30.135
1 4.69308 2.74143 13.5887
1 7.07578 8.70146 8.53629
1 9.45219 7.01459 11.8077
1 8.01008 27.1572 18.6153
1 0.212711 18.9099 13.0297
1 28.8777 7.88139 13.1304
1 5.43996 2.24837 20.9954
1 18.4528 13.9406 3.80013
1 28.6986 20.4125 0.520186
1 9.6195 5.26118 4.58745
1 9.71709 3.63191 16.9873
1 10.9324 20.5996 18.2867
1 5.91032 1.44832 15.3517
1 13.7682 12.3079 25.1152
1 19.4551 23.0811 11.2868
1 25.5797 8.07451 2.50299
1 30.1941 7.77233 25.7558
1 2.75313 20.8735 24.2093
1 27.8839 29.9142 23.6747
1 27.7523 29.0745 22.6569
1 27.7711 26.5248 24.9819
1 16.0339 23.2999 1.90818
1 20.6313 28.167 15.0251
1 5.22418 13.8192 8.13605
1 20.7743 20.4163 19.1549
1 18.0294 23.2397 25.7375
1 23.1022 12.698 11.6921
1 27.4663 9.52146 19.0827
1 26.7143 30.1579 9.68498
1 2.31869 22.8593 25.2714
1 5.41367 17.9312 21.0496
1 13.7048 21.5062 29.0919
1 0.853012 7.1206 26.9012
1 2.73713 14.6084 3.20003
1 27.9252 14.521 29.4648
1 30.0754 19.42 16.5288
1 25.3101 13.9241 29.6797
1 26.2378 28.0267 8.57594
1 18.1639 3.38373 20.5918
1 24.0393 1.31883 13.5061
1 18.9141 6.62214 26.108
1 13.9128 14.9211 10.8865
1 16.113 13.4553 23.6753
1 3.68683 19.6637 3.75444
1 15.5453 14.2008 22.2285
1 10.8062 7.97484 18.0971
1 7.68802 11.0811 11.3227
1 21.1852 4.68282 26.9783
1 18.1236 6.02319 8.67328
1 3.73652 14.3712 4.10945
1 15.7628 25.8738 25.622
1 28.9319 4.37916 8.25621
1 2.30134 25.9512 15.0939
1 13.7464 26.5767 17.779
1 19.2627 7.94232 26.4296
1 13.3912 2.58423 20.9405
1 21.0618 5.48075 18.1404
1 5.38045 21.6336 3.27499
1 22.5248 17.9489 8.7138
1 14.3763 7.51087 21.8443
1 23.6583 25.8431 30.0837
1 11.7135 4.06678 25.6873
1 20.1099 11.4034 8.46371
1 16.141 0.389748 19.8305
1 30.072 10.8506 19.1312
1 15.5475 13.4423 19.8872
1 17.4689 3.76554 13.3155
1 9.86058 29.6655 26.1611
1 28.665 27.6607 27.4276
1 22.2427 9.6386 5.3925
1 11.6042 9.12489 13.9991
1 2.70234 9.04414 27.5724
1 24.7716 28.8836 10.6377
1 22.3469 0.632645 21.8143
1 13.1903 30.295 4.729
1 16.9139 1.24732 19.3318
1 23.8359 26.8457 27.8519
1 13.1695 0.441658 23.0984
1 3.38704 23.2078 5.0131
1 24.7388 9.02694 14.2182
1 29.6038 0.140129 22.0325
1 7.4448 11.9573 6.62596
1 3.05102 18.1919 26.7016
1 20.555 8.2868 21.7686
1 5.77734 25.8284 16.8059
1 7.24776 10.0494 21.6504
1 2.46835 24.9061 29.2311
1 20.6314 20.6256 22.129
1 25.7586 27.6225 2.03916
1 24.5634 16.9034 1.94155
1 1.25673 28.9957 15.32
1 21.4319 18.7781 27.5718
1 14.2682 20.9699 0.191785
1 14.7154 12.7807 14.0474
1 0.606426 30.3057 6.54195
1 4.84719 10.0416 12.1195
1 12.4245 21.8416 15.9742
1 23.495 26.1591 21.9319
1 24.1101 6.65661 16.5948
1 7.12835 17.8379 13.8225
1 2.97129 1.63051 9.09821
1 6.06879 30.1471 10.3161
1 14.5552 6.21175 26.9537
1 6.32204 17.2419 20.1132
1 5.57764 3.89313 19.3024
1 12.4312 19.7711 3.58858
1 22.3488 5.23137 1.76602
1 26.1663 25.772 15.8617
1 7.53244 11.5107 13.8409
1 5.59122 1.61252 13.8342
1 7.14668 12.7672 27.4932
1 22.1386 25.4199 23.8685
1 9.69499 10.5581 16.9274
1 14.6701 21.859 11.1914
1 11.6076 18.4483 6.80766
1 21.0353 1.78476 18.6249
1 25.9465 3.8668 19.7733
1 12.8 26.1529 8.7993
1 7.83803 5.28227 20.3974
1 3.57685 1.74809 25.8854
1 29.8956 29.2227 22.2235
1 24.4637 6.86116 10.0717
1 0.910999 26.0766 18.5999
1 25.5269 19.2095 12.508
1 17.3521 27.3505 19.1482
1 18.8244 19.8883 27.8696
1 11.995 18.2507 13.6684
1 22.5047 1.41126 8.82886
1 0.499731 20.1927 7.30676
1 5.26039 19.4467 24.3428
1 0.443314 11.1919 1.01629
1 3.72849 0.259344 9.05273
1 15.7324 3.34749 20.143
1 21.5734 29.5101 21.9366
1 16.1563 18.1565 18.7357
1 10.9407 2.34396 8.40014
1 15.1082 5.49119 27.6969
1 21.7081 19.3575 12.9092
1 17.9791 25.1187 28.1019
1 5.79448 0.426007 19.0813
1 26.8385 7.28819 2.84705
1 21.2856 0.375224 26.1636
1 15.0362 7.06204 13.2896
1 30.2781 10.1917 23.0613
1 3.22684 11.3226 14.1102
1 2.02982 21.059 11.5877
1 16.2398 22.4761 18.6129
1 21.2837 11.1457 8.8395
1 17.4005 24.22 7.48591
1 2.10925 9.84099 10.8448
1 12.0882 24.0056 19.4774
1 13.1226 3.07196 25.3312
1 23.5815 2.51568 23.8912
1 11.6035 1.53852 29.0964
1 2.57481 8.60363 10.0069
1 29.6113 16.5043 10.4595
1 9.82044 24.001 8.8328
1 28.1233 16.0429 22.4626
1 21.953 17.2953 1.3335
1 8.39896 19.9939 14.4515
1 3.73722 27.9986 24.5853
1 6.76553 13.5547 14.6322
1 13.9817 1.15267 12.0109
1 15.7484 19.9137 5.45932
1 24.6053 3.61496 12.0713
1 28.8941 26.5791 22.6075
1 17.7352 27.675 26.3801
1 4.99532 29.1014 10.5507
1 16.3299 8.42189 5.34044
1 18.5808 12.8928 0.562308
1 10.8813 0.509588 26.7092
1 29.4515 14.034 14.916
1 8.30736 17.478 0.881809
1 13.5683 27.2068 29.5376
1 5.07643 6.60737 4.27311
1 5.55441 6.92427 15.065
1 3.60783 9.70059 30.2138
1 6.5788 25.8534 28.9373
1 18.0024 26.2228 3.23663
1 2.30195 19.6059 2.04739
1 10.1938 0.457859 19.2047
1 22.9857 10.5133 0.816484
1 0.352492 28.9211 6.17312
1 28.0597 25.4823 20.1695
1 7.83097 16.8892 11.8169
1 1.66962 19.8957 17.833
1 7.91105 7.26724 14.1813
1 19.5372 4.32583 3.54289
1 19.6712 16.7573 27.9342
1 9.84695 15.8625 23.2459
1 29.0106 5.98032 22.2456
1 5.73867 19.9994 11.5456
1 29.6478 21.1139 28.6787
1 15.4675 30.0472 16.7523
1 8.07582 23.6626 10.5116
1 10.345 22.6327 20.1104
1 1.72297 16.6341 5.12537
1 6.65509 23.363 10.6738
1 22.3316 11.5589 8.00322
1 8.13663 7.01339 1.81545
1 5.75618 15.3734 2.61421
1 13.1972 4.15445 11.7521
1 8.27131 28.8381 16.3369
1 19.4947 0.246421 3.02388
1 1.55472 2.44418 12.2523
1 0.201645 6.91486 6.699
1 9.62546 18.0643 8.10268
1 18.0027 7.09101 2.76342
1 29.7115 9.85315 7.10415
1 9.24555 2.20548 23.5713
1 4.92285 22.2304 17.5216
1 22.3145 23.2086 25.0387
1 26.5885 12.5873 18.813
1 26.7777 18.7139 1.28673
1 28.9855 21.8014 19.012
1 24.5801 1.47186 7.41405
1 4.80651 23.9107 17.6392
1 12.5033 25.5426 12.031
1 7.1356 17.1255 5.86479
1 11.9281 9.86429 3.16816
1 4.05435 28.4592 3.68714
1 16.8394 0.302712 10.4072
1 8.42401 4.36303 0.750774
1 0.768352 14.2124 30.164
1 1.93506 17.7896 27.72
1 18.035 21.2809 21.6173
1 18.9707 20.9749 1.53452
1 25.4891 28.6698 29.5802
1 11.1645 4.64081 8.68762
1 6.16513 18.4983 24.8167
1 18.7138 3.3155 11.9897
1 1.19353 19.3524 4.16341
1 16.8953 18.4666 0.77492
1 8.28792 19.2569 5.54068
1 28.8511 20.5573 13.5204
1 29.8563 18.9986 23.7295
1 4.47036 7.96721 1.2758
1 2.89469 11.6368 11.733
1 6.51587 9.33833 14.6572
1 14.0962 5.70465 23.0519
1 6.42864 30.0485 2.16477
1 3.90273 1.01594 19.1543
1 5.85564 20.0061 10.2597
1 8.55996 1.52412 9.6314
1 23.0127 12.7374 4.43518