4096
Atoms. Timestep: 980
1 12.9547 13.0888 11.9699
1 18.0952 1.6529 10.5612
1 17.3259 17.1321 24.0214
1 19.6154 23.2853 9.58118
1 30.2617 11.5425 12.4674
1 4.41362 21.2848 21.7321
1 18.7893 12.7555 21.1238
1 18.4761 20.2777 29.8188
1 29.0381 9.74417 16.0945
1 9.90503 13.787 11.4488
1 15.6976 16.9915 10.9177
1 27.7581 27.0602 28.1697
1 11.1049 19.4188 4.85905
1 22.5975 28.3348 6.68945
1 28.0461 19.7738 14.9928
1 4.6754 21.2185 25.3811
1 17.6746 25.3888 1.86124
1 30.4673 25.7425 9.01098
1 21.2395 1.01667 14.2946
1 21.3219 12.0381 21.0901
1 9.25761 5.68588 17.4685
1 29.7842 2.93379 2.95974
1 25.0888 0.430521 29.378
1 7.37658 3.26709 14.9429
1 10.509 9.21802 7.05951
1 5.84823 27.8755 7.68867
1 21.9639 10.1015 13.3206
1 6.5674 26.6802 13.981
1 17.7339 26.6001 3.99861
1 25.2574 2.47928 17.9506
1 2.29391 17.6349 11.2668
1 30.5145 29.9797 7.16497
1 19.0716 6.88162 29.6126
1 0.809518 5.6234 22.6254
1 16.7121 3.652 25.3378
1 27.6564 10.6011 1.26786
1 21.8046 16.2968 10.9729
1 27.9499 25.7561 20.0959
1 26.8461 1.11684 27.8566
1 8.3962 13.3097 7.54258
1 30.1179 17.3678 9.60106
1 16.7075 18.3512 23.0955
1 7.65547 11.1462 3.55447
1 17.3315 21.3024 26.5662
1 13.0888 16.2604 24.0289
1 28.6829 11.3135 26.2217
1 11.6493 26.9114 28.1226
1 10.1292 8.33946 8.86741
1 7.22768 16.9218 13.7694
1 22.1649 6.82047 0.8624
1 9.98222 14.021 2.55762
1 23.2638 17.9025 11.9711
1 1.55337 11.2998 16.3121
1 11.3517 27.7562 14.6175
1 20.2879 0.806887 19.9905
1 24.8165 2.28288 1.51635
1 26.8115 10.2939 7.44996
1 2.13175 23.8695 10.7658
1 1.54785 29.036 19.7423
1 3.14252 28.1343 1.65163
1 26.8467 29.5536 15.7752
1 22.2792 22.7544 25.5446
1 11.064 25.6258 16.3474
1 18.4229 25.6618 4.85609
1 22.5977 5.42985 18.8739
1 12.2145 17.5054 16.7183
1 19.573 29.8018 2.50691
1 21.2154 11.4904 15.5194
1 25.0632 7.36062 27.1281
1 9.67185 24.3007 14.6349
1 28.7916 13.2026 24.4567
1 1.5885 1.67961 5.9709
1 26.0314 19.7484 28.955
1 8.93393 9.154 2.7943
1 24.6781 18.4959 10.0176
1 7.29891 8.64889 7.89698
1 4.03099 12.0684 12.8839
1 28.16 26.4998 6.25684
1 1.73 28.2807 2.42278
1 29.9151 26.1296 28.8851
1 13.0612 1.23219 10.8235
1 13.7941 18.0336 4.45627
1 0.712825 26.5013 25.7113
1 19.0453 1.61508 16.6434
1 26.6812 29.238 17.2314
1 19.1964 16.6566 7.74422
1 27.1664 12.3001 13.5798
1 24.0109 10.4432 19.6958
1 29.5136 3.68496 20.9434
1 1.96406 5.77943 13.7799
1 3.35266 26.3161 10.4788
1 7.88185 14.7653 21.1082
1 21.4133 26.5745 14.4506
1 8.56735 5.06584 6.28417
1 9.83435 5.72345 9.99867
1 1.82222 17.1019 8.39196
1 17.678 17.7366 16.4889
1 15.5585 19.8945 15.9598
1 20.6773 18.5029 6.35057
1 6.95612 16.2854 2.8728
1 29.1631 16.2729 10.003
1 22.9419 13.0864 22.576
1 21.6544 22.8462 13.5454
1 13.5018 14.3662 9.47671
1 23.0113 3.7924 22.3932
1 4.20088 4.85143 29.6628
1 1.23234 10.1635 25.0279
1 18.1512 12.916 26.4025
1 7.02362 19.816 6.08509
1 14.3833 22.1678 19.6826
1 25.7228 22.8632 8.42808
1 11.5941 18.8295 24.278
1 13.8429 10.8195 24.324
1 2.61324 20.5831 28.3282
1 9.42793 1.84595 24.0798
1 23.4097 18.6104 2.18893
1 2.24259 11.8625 26.9375
1 18.0771 21.5789 30.3881
1 11.8207 12.2379 7.1837
1 26.4933 18.2968 2.75216
1 1.94744 20.5878 23.9773
1 6.49165 25.6662 20.8218
1 0.559262 20.8783 1.7499
1 8.56337 29.0057 10.897
1 13.9248 20.1333 17.9944
1 12.3869 11.1352 18.1648
1 11.5416 7.89621 30.4831
1 8.66802 30.0396 23.1787
1 22.7031 10.9898 25.459
1 25.0519 1.20104 15.0595
1 6.13901 5.68069 16.0047
1 21.9435 1.86231 2.13737
1 16.9464 5.16898 22.5227
1 10.9917 10.4733 8.74987
1 24.1695 19.4535 8.97935
1 13.7823 28.4551 25.5698
1 25.8042 8.22268 0.989029
1 17.0626 17.1842 20.2701
1 24.6951 4.33671 9.94533
1 18.364 25.1325 15.5367
1 16.6387 20.2075 10.6498
1 3.24392 27.0015 0.529691
1 5.57543 13.5852 16.633
1 16.1884 1.59192 22.0807
1 21.3616 12.2647 24.3795
1 4.23757 29.4684 26.4884
1 13.7098 19.0097 22.4744
1 17.8398 19.0472 2.4918
1 21.7702 22.669 23.0086
1 17.3985 20.7288 25.0548
1 3.01245 7.56116 1.55052
1 10.103 0.891332 7.58957
1 14.6453 23.1999 18.6036
1 20.1323 30.7876 10.2554
1 12.9657 7.26063 18.0102
1 3.33829 10.9806 12.3445
1 10.0165 4.48214 30.2349
1 23.6119 4.79331 21.8259
1 21.0096 13.1202 11.4851
1 13.4461 2.13656 24.5294
1 24.3978 7.39596 14.2085
1 23.9549 6.69731 4.94482
1 4.83488 13.8792 19.2566
1 25.5424 5.54554 25.5556
1 17.2214 23.4509 26.1313
1 13.889 20.25 22.977
1 26.3597 2.82047 9.37862
1 13.2367 7.33564 24.9994
1 26.0803 3.25068 8.18397
1 28.0936 18.0724 19.7521
1 19.0534 1.0422 7.50866
1 22.6799 6.20755 4.03159
1 7.38166 19.685 3.01522
1 2.17673 5.90123 24.5289
1 22.9078 1.54563 11.9939
1 3.81434 10.6911 5.02335
1 20.8844 18.0399 9.60192
1 21.0016 15.5496 4.06417
1 4.19789 29.9483 0.764125
1 3.64415 23.6422 1.94701
1 -0.0344474 27.4139 14.7085
1 24.991 3.50339 23.9299
1 14.191 15.8063 17.4319
1 22.9282 27.287 16.4514
1 9.39083 12.8753 27.875
1 22.1935 7.56917 6.51006
1 29.0663 24.5444 13.331
1 20.9056 25.8214 8.41774
1 23.4984 10.0863 6.05737
1 24.2653 4.75554 18.717
1 25.8559 12.3654 1.33146
1 11.8235 15.208 2.98019
1 16.5002 18.1382 12.7927
1 0.507806 5.48165 28.5719
1 24.4254 18.1195 23.479
1 0.775231 15.1658 8.90253
1 28.7785 14.8192 24.8639
1 21.6971 10.9475 7.7635
1 12.325 16.1758 20.5531
1 29.4927 17.6715 17.5543
1 19.3639 14.9587 19.0887
1 3.36223 23.4211 21.9223
1 17.1118 13.5085 30.1625
1 10.1561 2.86775 27.4729
1 1.70259 7.12643 27.3844
1 18.3152 9.90425 15.3678
1 26.5599 24.7904 28.8398
1 17.1214 15.2446 10.4771
1 6.25091 15.6421 13.2559
1 24.7949 21.2933 3.11313
1 2.86512 8.37939 9.76786
1 24.4036 28.2429 12.828
1 6.51479 25.8933 9.01857
1 1.90439 21.2758 21.4554
1 14.9094 6.52009 22.0125
1 21.615 4.85223 29.0734
1 5.51742 23.8646 7.63341
1 3.80691 18.825 25.2554
1 18.3403 26.4685 7.6197
1 8.52629 30.0345 5.72181
1 8.81291 9.48261 16.6103
1 5.47252 20.5057 17.1433
1 22.5819 18.1577 13.5075
1 5.19035 12.5959 6.70143
1 7.86939 10.6473 26.02
1 14.9417 15.0575 0.639193
1 21.9856 15.3707 29.2224
1 27.8726 23.288 23.233
1 15.2434 7.89662 6.14377
1 30.1601 9.51242 13.8263
1 16.5466 26.6785 12.2923
1 19.8697 5.06086 6.23025
1 13.5725 20.651 24.544
1 22.1445 7.65408 19.9163
1 13.3422 3.37411 9.60855
1 21.0915 3.07746 22.4839
1 9.99395 25.3336 2.8318
1 5.89161 23.2583 25.6371
1 9.42685 3.9261 11.4804
1 24.7661 9.96125 1.10466
1 8.05066 24.9193 13.0808
1 2.42454 5.8212 5.37575
1 25.9044 27.0754 19.7019
1 9.06043 24.3429 23.0712
1 3.7686 23.4778 20.5672
1 11.3388 10.2357 2.91369
1 29.3481 15.015 9.70622
1 20.6589 6.08941 21.6985
1 3.65205 2.07713 2.28591
1 9.32651 27.1849 26.7619
1 9.54702 7.22606 8.06855
1 4.28062 11.7893 16.207
1 16.8907 2.99236 8.005
1 19.2829 4.88228 25.6977
1 25.157 5.41056 13.1233
1 16.0774 29.8436 15.8807
1 26.3743 0.806342 25.4843
1 26.2391 14.782 10.969
1 4.86363 3.36365 13.1996
1 20.9974 12.1338 12.8471
1 15.9062 9.98652 4.61049
1 21.8892 13.6696 9.01876
1 28.5726 29.149 27.284
1 3.16958 25.1327 18.9834
1 19.3742 3.75516 7.29248
1 25.6554 29.7846 9.49971
1 9.85375 29.7078 14.0691
1 18.7563 11.9251 9.07052
1 21.204 2.20313 4.16414
1 17.3237 20.4625 27.5358
1 28.9124 8.25565 17.0462
1 7.50691 27.05 18.9659
1 6.77441 4.87736 3.41658
1 17.8179 4.02849 7.25051
1 8.65992 4.96385 30.0692
1 28.2505 5.96002 29.0825
1 12.294 19.4091 11.417
1 11.1225 8.24353 14.673
1 3.33181 11.9948 2.41364
1 18.7526 21.5094 18.1389
1 7.66419 21.7236 10.8549
1 18.6233 14.9884 13.0773
1 26.272 13.9827 16.3021
1 27.7544 12.8971 11.4083
1 20.3125 3.14521 4.77399
1 27.927 28.3255 22.4671
1 22.5069 26.38 17.4775
1 6.95176 25.1986 6.79343
1 30.3403 23.8967 13.085
1 19.0815 27.5542 29.7975
1 3.30196 5.88618 11.6435
1 7.2271 19.6079 26.337
1 15.5307 21.3317 28.9505
1 25.7576 6.11086 21.9174
1 17.335 22.5644 20.9176
1 28.6197 29.0853 1.19144
1 28.4648 3.98978 12.9812
1 21.9148 9.74701 26.021
1 13.4515 27.0968 6.48956
1 26.5172 12.8647 28.2518
1 2.88368 17.0336 28.756
1 3.14967 10.4876 2.57084
1 6.12981 17.9807 4.73001
1 8.94363 19.0559 27.2954
1 16.5186 7.32035 24.9308
1 8.77852 22.4026 10.9887
1 29.2028 21.4925 18.0881
1 8.39486 13.7141 28.2018
1 23.6693 29.8988 0.340013
1 28.9895 12.6916 8.57794
1 17.8064 24.9618 12.7184
1 23.1483 15.3397 5.1796
1 2.77125 13.811 8.68439
1 9.4062 26.7764 14.5862
1 23.3166 21.7632 14.8062
1 21.5033 0.605047 22.5091
1 10.0233 7.49545 14.4935
1 22.1594 9.76382 5.57605
1 14.8482 22.6371 17.3221
1 3.52403 27.0524 7.57013
1 5.1805 21.6619 20.6324
1 6.21938 14.7912 16.5173
1 13.3717 14.9284 27.2125
1 5.93117 2.41578 5.80132
1 11.9948 17.8882 2.51099
1 26.2531 14.9275 5.27662
1 0.639139 13.3217 4.59607
1 9.72941 9.42506 5.65867
1 27.6483 21.0095 18.4748
1 18.481 10.3771 30.0464
1 24.8617 21.8084 8.10363
1 24.9802 30.411 6.26342
1 7.09744 20.2134 1.75271
1 13.2987 16.1778 26.5839
1 24.134 10.1157 8.36967
1 4.34753 28.0512 2.72658
1 25.2374 21.9465 26.523
1 2.48371 0.905762 8.24505
1 10.5612 6.96065 0.339116
1 11.3915 11.055 1.68924
1 7.60656 -0.0258695 0.445551
1 13.4308 25.1171 17.5393
1 7.23412 23.3196 20.6327
1 29.4034 29.8759 18.6705
1 9.74254 28.2219 27.9
1 26.3337 26.9697 8.89162
1 24.5825 8.84346 7.64492
1 20.0162 24.9676 11.8702
1 28.6101 10.3774 25.0571
1 29.6296 16.8627 26.4361
1 29.0769 0.115212 21.1118
1 5.12551 24.5089 14.8137
1 7.2867 12.5674 11.7136
1 2.38 2.11998 29.484
1 11.2121 14.2196 22.0043
1 24.5139 13.8873 14.7887
1 5.95275 29.9302 15.4504
1 7.49658 28.9906 5.79586
1 14.9435 2.24119 1.34456
1 25.0722 7.84487 9.67907
1 13.2577 16.3186 13.6941
1 27.4 1.30903 8.27331
1 0.438298 4.50951 5.24069
1 22.4205 14.263 2.99812
1 15.0633 13.4634 6.423
1 7.01277 28.1594 23.3659
1 7.92134 22.8712 1.67877
1 0.406899 7.13553 25.4655
1 3.39379 11.6968 21.5907
1 10.3286 9.14949 3.09137
1 6.57639 18.5367 5.79265
1 24.0564 22.348 5.86971
1 3.29212 9.43564 16.3515
1 10.6241 27.432 10.1404
1 30.3116 11.3852 6.80973
1 7.14547 25.7587 15.0434
1 2.18637 10.8254 13.26
1 8.12997 19.6959 21.2117
1 28.1844 12.7268 6.61419
1 25.5045 1.45224 11.3344
1 24.1268 15.1959 26.0732
1 14.9676 7.21512 10.6337
1 25.0201 11.3952 14.1779
1 27.0938 1.25224 10.8709
1 21.5626 15.4968 24.675
1 16.1276 15.628 13.1111
1 4.40342 3.8668 0.440343
1 3.84137 26.474 27.7594
1 26.7721 8.04065 21.1441
1 8.90527 17.2795 7.65859
1 22.3435 5.89628 28.0578
1 19.7725 7.61285 4.8821
1 10.5732 23.4767 16.8493
1 12.4004 28.9012 24.8775
1 26.9007 16.2675 8.65612
1 6.5043 26.8922 0.837565
1 1.91718 13.5732 3.42208
1 22.2902 20.7795 5.83444
1 1.49124 22.3462 17.556
1 -0.128088 24.2754 8.77298
1 9.65424 29.9444 15.6539
1 24.1146 9.03422 18.0594
1 25.0648 12.8114 28.7279
1 20.9179 3.65879 9.50685
1 25.1132 26.4673 11.3618
1 10.7385 28.6374 6.59655
1 5.8217 29.1582 14.27
1 19.2145 7.84174 0.26109
1 29.7246 9.54882 1.62374
1 10.9308 1.1033 17.9355
1 8.55931 7.82295 23.7438
1 24.5845 24.4344 4.49428
1 4.70968 8.87686 24.7747
1 2.18124 20.3934 12.1433
1 14.1836 21.353 28.2302
1 30.2212 7.36367 24.0014
1 4.31038 22.627 10.701
1 1.60488 25.2631 29.4826
1 25.864 6.43959 24.4237
1 5.9715 17.8378 15.7471
1 18.1319 3.07134 3.46235
1 19.4913 27.1842 23.7414
1 6.54375 7.11283 22.4049
1 8.26795 6.42596 20.0162
1 10.9164 3.19921 7.42023
1 27.8722 29.7526 6.54249
1 30.6569 11.8604 2.34536
1 13.2566 18.0193 19.0931
1 17.1709 24.2189 15.1961
1 4.21615 20.1585 10.9044
1 2.09731 1.61064 19.8109
1 12.8862 3.25832 12.3244
1 2.53319 5.03017 17.6063
1 3.97862 23.046 0.480091
1 1.37268 16.6811 11.3301
1 23.2013 26.4257 8.13048
1 11.7521 21.0427 28.4707
1 13.3529 23.6759 28.4328
1 4.65971 3.15434 23.4723
1 10.8757 19.8164 3.45672
1 30.3139 1.66663 10.4745
1 11.0929 9.26839 0.509087
1 5.92645 0.876236 27.0371
1 20.5024 17.0119 22.739
1 7.5775 8.56397 30.0787
1 20.5387 21.8071 26.8429
1 27.1687 17.1795 22.3147
1 7.94302 29.907 16.2833
1 30.7174 18.7899 3.09577
1 23.1102 16.8614 11.2382
1 3.38426 2.55147 9.75525
1 28.8543 24.1176 0.339136
1 15.0588 8.21334 15.6171
1 15.8291 12.1203 26.7627
1 4.67037 9.40959 15.6997
1 28.586 14.9551 7.41298
1 6.07687 16.4254 29.066
1 21.5471 19.6313 15.1256
1 27.7765 17.8894 16.5514
1 11.2778 10.0673 12.8431
1 8.56886 10.0386 8.1466
1 1.85444 16.8267 6.01162
1 29.2388 14.3927 3.13784
1 19.294 8.95564 12.0947
1 18.3803 23.975 28.2924
1 28.1728 12.6315 18.573
1 19.0913 4.39075 29.4022
1 13.5429 27.3318 12.1671
1 14.3442 24.9402 10.2361
1 15.7571 23.4742 13.2603
1 26.5729 23.4417 6.24309
1 7.11656 15.0786 8.74212
1 7.25825 27.5777 10.088
1 19.7387 23.5678 1.27902
1 29.1953 28.1948 17.2804
1 29.9765 30.2257 17.4729
1 28.9985 6.98651 1.07878
1 1.14789 14.5925 15.3175
1 28.4691 24.5134 10.3033
1 1.89877 15.5263 13.2197
1 12.6575 11.8562 12.9347
1 21.3386 21.8783 10.332
1 22.7323 1.91561 28.0032
1 21.6837 1.39416 21.1753
1 18.539 28.1717 23.6016
1 4.91154 0.835349 3.86343
1 25.0268 15.8181 10.5375
1 11.2871 5.39929 18.0537
1 2.42347 29.5697 6.29036
1 20.8785 28.8306 15.9287
1 29.4899 27.0085 2.92735
1 24.9273 28.6309 27.1094
1 5.96702 27.9882 21.4107
1 11.0174 16.1228 25.1504
1 25.2267 7.58554 8.26176
1 19.6148 16.4545 15.4397
1 17.1287 29.2979 25.39
1 4.44454 27.8982 28.4644
1 7.14669 1.87631 9.01444
1 12.7101 6.47069 27.8852
1 22.112 28.2518 27.1344
1 17.4646 27.4631 7.80174
1 21.6431 11.936 25.7249
1 29.0192 5.907 23.8205
1 16.5656 0.551489 16.8285
1 16.9209 1.79598 8.36342
1 3.57648 18.7378 23.8028
1 14.3171 8.97022 6.30177
1 13.7938 9.85787 3.13738
1 14.7468 15.059 11.8538
1 8.39672 19.7461 22.7336
1 26.5357 13.908 25.8794
1 6.51776 12.3516 18.2167
1 5.27852 0.982501 8.28379
1 0.623642 14.9817 29.3487
1 0.359653 30.5287 4.87506
1 18.4981 2.037 26.2333
1 18.7952 18.4438 15.7486
1 10.487 10.9194 3.99708
1 15.224 26.3084 8.19825
1 23.1459 28.4634 23.4211
1 10.5339 25.9425 10.0136
1 16.5625 7.49365 12.9021
1 4.25525 15.361 5.66606
1 14.5447 27.5681 10.4552
1 22.8694 0.555439 21.0664
1 17.0879 14.4225 5.29607
1 3.55232 0.603432 4.33348
1 3.18024 21.8588 22.0405
1 30.0345 2.61875 22.0818
1 17.6847 3.54665 16.1562
1 14.7876 13.1771 29.3116
1 23.3679 4.36296 9.21512
1 28.9342 6.51921 2.4816
1 26.0442 29.5068 1.65014
1 21.5799 0.146562 9.80349
1 15.7721 18.2652 8.12173
1 10.4577 23.1558 14.1416
1 1.4429 21.19 27.9853
1 4.46441 10.0735 19.224
1 2.46447 19.7175 5.68916
1 10.9698 8.02099 9.97745
1 11.8191 29.4213 5.45214
1 12.6772 22.3731 21.925
1 14.472 6.86422 24.9151
1 17.5014 6.70896 1.98159
1 22.2607 15.9833 8.11802
1 6.17616 2.59965 12.7709
1 11.2305 24.0756 26.5848
1 11.2096 21.9861 18.6629
1 5.91233 0.278807 17.7953
1 8.72841 19.78 30.2003
1 12.3268 17.8962 11.7038
1 16.6268 25.1075 21.1314
1 1.29865 21.1956 30.3377
1 9.2378 5.02697 14.378
1 0.15725 3.03505 4.37103
1 0.418 9.44744 24.0569
1 10.2926 19.9196 30.0298
1 13.0248 1.70505 7.3832
1 3.35865 4.22205 19.6904
1 19.8889 23.3524 16.6547
1 21.1948 23.3698 9.58942
1 4.82536 20.0884 4.36885
1 29.4337 5.12764 8.48775
1 1.9101 6.02157 30.3882
1 13.521 28.2817 9.65122
1 23.598 17.7529 7.30905
1 17.4756 5.28555 6.58457
1 7.65118 7.05806 14.2785
1 10.2836 14.0192 18.0153
1 9.14057 29.0942 3.3829
1 10.5151 3.35842 0.385071
1 15.3198 7.54281 28.3397
1 29.415 21.9901 29.4453
1 13.7479 8.36244 13.8181
1 17.4964 13.0273 17.7739
1 1.37633 15.9432 29.9592
1 23.7238 25.2168 8.1154
1 23.2165 6.22997 25.6477
1 15.3895 7.95014 24.9382
1 29.198 14.6042 11.2163
1 11.6525 6.68988 17.8639
1 22.6303 11.964 4.80055
1 7.64229 22.0809 28.2262
1 21.2294 0.496045 7.31215
1 1.79002 17.8355 19.1962
1 22.947 24.1812 24.4545
1 2.20859 10.9848 24.5757
1 2.03968 14.211 23.1535
1 17.8956 3.26977 25.9851
1 10.867 26.224 22.3932
1 24.1071 19.0946 7.48056
1 14.1389 4.34982 15.4749
1 9.29173 22.8157 7.46131
1 9.41614 1.60763 27.4685
1 10.3015 7.65106 20.6316
1 24.3999 11.2761 16.6857
1 3.53743 24.9482 5.16814
1 19.112 25.6015 16.6642
1 8.78045 18.2765 19.4127
1 19.2732 2.52449 1.21564
1 20.7197 1.99694 25.0386
1 21.7184 11.617 9.01937
1 10.1708 22.206 8.32544
1 25.1101 7.21652 3.67509
1 9.46844 8.70646 12.069
1 15.789 13.9197 10.1229
1 7.29765 6.91465 29.2594
1 11.4386 27.2928 3.57737
1 20.2761 22.5656 3.83606
1 17.0848 12.8127 3.10091
1 16.9258 8.53238 6.36308
1 2.88976 0.760942 20.7474
1 28.07 23.2201 25.6488
1 7.13952 1.3853 23.6977
1 24.7261 11.4989 28.0298
1 1.1389 4.43639 1.58647
1 27.8035 0.691282 12.736
1 25.5899 24.4352 25.078
1 21.6056 23.1334 4.16802
1 29.2255 19.5157 5.64945
1 15.6916 2.65093 25.1121
1 20.6896 10.0165 0.26479
1 19.4299 12.2646 19.7912
1 14.9161 1.57698 21.6644
1 30.1076 1.74874 25.2423
1 15.1152 18.6334 4.41208
1 29.0932 4.22352 2.38501
1 23.9023 0.545427 21.9089
1 23.699 27.3552 4.40183
1 15.1641 2.45675 16.6308
1 8.92803 17.7092 15.3218
1 3.93048 16.1059 30.7344
1 16.0323 14.9228 15.723
1 0.999088 21.2418 16.9879
1 9.86401 26.6476 5.82219
1 12.8052 30.0418 6.36869
1 7.32901 13.78 14.2173
1 6.9738 3.14597 23.4107
1 12.302 13.7122 21.1422
1 21.969 29.5523 3.01369
1 24.0774 29.7127 5.14631
1 3.03273 23.6357 5.7263
1 13.3132 25.8823 14.6082
1 29.8071 0.41741 25.8224
1 21.3962 11.5935 17.0573
1 4.01004 7.17825 4.19292
1 28.8798 16.4699 2.00415
1 12.0763 23.0827 26.2007
1 18.2202 19.545 25.156
1 23.2586 11.8803 11.2629
1 20.4479 0.671512 4.25392
1 28.1719 24.159 8.52499
1 20.1542 14.4511 11.8083
1 14.1042 18.8634 14.1982
1 13.6081 28.0396 13.4187
1 20.5592 11.4787 4.03638
1 16.1847 28.8057 28.7411
1 10.2154 5.0251 20.5369
1 4.11929 3.03972 20.2959
1 15.0461 29.0965 3.52854
1 15.2305 17.1088 27.516
1 4.44482 13.9752 29.429
1 18.7084 21.5216 22.6866
1 0.411699 20.9186 4.25159
1 24.8133 2.91474 26.0331
1 4.78728 5.0248 16.4867
1 14.2295 7.68749 22.0121
1 8.71473 0.749018 16.728
1 1.35275 22.5152 19.2137
1 22.2721 25.0119 5.47962
1 10.3295 26.6134 18.641
1 27.0209 7.62327 24.9343
1 27.7599 9.32544 9.64963
1 13.3958 20.2096 28.4724
1 9.90398 24.5759 16.1514
1 0.0933926 23.0877 21.7839
1 28.8117 17.3251 18.7236
1 14.6118 25.9821 16.5116
1 29.9405 2.89343 7.03891
1 27.6558 14.2021 16.3788
1 23.3548 2.54362 14.3307
1 5.57616 10.399 21.5941
1 2.58795 1.28635 18.5998
1 8.18658 26.9696 2.39768
1 15.9266 16.3385 0.115913
1 20.4503 13.5779 26.5183
1 6.74262 22.6033 11.2173
1 10.1176 14.8866 12.5186
1 5.40789 15.3374 28.1288
1 1.65249 2.53648 3.86877
1 19.8388 20.9916 8.59857
1 16.9948 9.83285 8.3845
1 27.3309 19.2032 21.4847
1 29.946 15.2129 23.2394
1 4.13776 1.5394 18.3688
1 23.2885 5.65912 8.38746
1 8.93172 8.14907 5.71477
1 15.6826 19.1203 25.5178
1 3.18936 3.68675 6.16185
1 4.83949 2.44878 4.80469
1 28.5166 11.2423 8.54702
1 26.4295 5.3377 9.34465
1 2.73931 9.52709 26.8536
1 2.82406 28.5407 19.6965
1 16.0027 18.634 6.74927
1 10.6183 30.1197 10.9278
1 10.1127 16.2406 11.6348
1 25.0642 9.64457 4.05476
1 4.29171 6.67401 7.95415
1 19.0501 23.8614 18.9392
1 6.55087 1.87269 20.7513
1 9.05993 19.3943 9.10771
1 27.9422 2.67305 1.43644
1 7.38649 24.2619 1.39939
1 14.2217 12.0821 8.55249
1 25.6448 13.3697 27.1319
1 12.4287 5.31332 12.1728
1 24.416 6.06672 7.74202
1 5.44686 21.9639 13.6526
1 8.40075 2.23579 6.44624
1 29.607 19.3686 21.0077
1 29.986 25.3137 3.85577
1 20.5656 6.27061 23.179
1 9.22038 27.5297 8.31614
1 7.78754 3.40963 7.06379
1 9.62682 9.78483 22.1357
1 11.1103 13.8091 14.1375
1 27.4359 8.14586 23.4781
1 15.3293 18.316 19.4454
1 23.5103 8.71899 15.817
1 15.2614 2.00655 19.2887
1 26.9937 26.8078 18.6382
1 3.1896 18.689 3.26861
1 12.2507 18.2139 27.4849
1 3.58778 5.8125 17.0083
1 19.6908 25.0098 1.28277
1 14.4666 9.21576 18.4995
1 12.4367 27.1872 9.95095
1 7.37068 7.64928 17.2054
1 3.4238 25.4413 3.20936
1 6.20829 29.6932 5.4752
1 30.051 5.00029 23.1338
1 16.651 23.4806 18.7568
1 3.8848 18.5648 9.03411
1 4.58307 0.616159 14.9679
1 3.80884 8.7007 27.5916
1 10.0175 29.5043 17.4312
1 0.87011 11.1321 8.87793
1 25.4305 9.45525 14.0789
1 23.3113 26.8822 23.98
1 10.7751 8.88555 21.4954
1 12.6332 14.0476 2.08031
1 23.4253 2.08686 23.7503
1 8.00687 5.23114 23.4063
1 5.49005 5.13235 23.0347
1 18.2392 20.452 5.87577
1 29.246 4.52858 17.8303
1 14.2434 3.06287 25.0046
1 27.1495 15.6201 0.198509
1 23.0791 9.69107 18.8446
1 9.99928 14.8491 1.24004
1 19.0577 6.57834 12.7293
1 24.3769 7.57779 18.5299
1 6.56832 13.5554 0.88751
1 0.882429 5.14701 0.464515
1 12.683 23.628 7.91408
1 15.8236 4.41065 5.10756
1 6.35444 20.1321 10.541
1 3.18167 7.05042 16.6942
1 4.36236 10.8527 28.251
1 14.8024 16.5073 26.269
1 3.65486 7.6447 12.9024
1 2.83271 27.2894 20.3472
1 19.7602 15.7275 4.80391
1 26.2331 6.08761 0.592134
1 1.18741 15.7861 19.8365
1 0.545512 22.5424 4.49219
1 30.355 12.9925 26.336
1 7.43466 11.96 29.312
1 15.5889 11.6789 13.2129
1 2.79903 6.90319 22.6198
1 27.9869 1.21031 1.96114
1 27.3034 2.519 7.15038
1 19.2285 6.43853 9.32718
1 9.11806 27.4841 13.592
1 20.9803 10.6727 12.9449
1 3.47972 8.43581 21.0643
1 0.31508 8.50189 0.937478
1 16.9467 27.5464 4.235
1 13.8369 23.4838 10.6743
1 6.77185 11.4322 19.4383
1 24.5891 11.8875 21.1312
1 29.7333 16.6507 3.30835
1 1.94301 13.237 29.5491
1 21.7814 20.3924 25.4378
1 1.9312 27.1223 21.3681
1 2.66324 26.53 3.78823
1 1.12398 23.3768 14.224
1 8.88344 1.56725 13.6596
1 21.4401 15.1636 2.80969
1 26.6655 11.8223 22.3524
1 20.2072 22.9825 24.5826
1 23.5536 12.4413 5.64294
1 16.2156 6.03568 18.5893
1 14.1657 24.2356 2.27757
1 22.3009 14.4637 13.8569
1 1.37439 15.6666 1.73729
1 3.24952 29.1286 30.3187
1 26.6526 6.42515 6.69561
1 14.1951 2.92765 21.4967
1 14.6735 22.6895 23.8346
1 2.51518 7.16138 9.38821
1 26.1985 17.7596 25.0559
1 13.6423 21.5496 17.742
1 4.01644 12.7049 30.0194
1 1.05042 3.60011 23.9614
1 11.5295 24.3397 8.25533
1 2.7617 14.2852 16.0728
1 14.5332 9.99479 5.09591
1 12.4673 4.88123 24.7861
1 28.7855 14.0705 8.59748
1 24.4067 8.69101 14.7113
1 22.8903 8.51021 27.9142
1 8.19062 16.5813 2.78357
1 22.0688 13.4081 23.8224
1 16.6574 30.2136 4.72285
1 13.6814 27.8889 1.7049
1 5.62002 15.3603 5.1578
1 29.3382 5.29401 3.12779
1 28.4626 4.94576 27.8552
1 1.2273 29.0174 26.4628
1 29.8964 17.5377 24.9238
1 5.18978 4.58409 1.47887
1 1.94519 25.7457 12.3305
1 8.01089 3.94769 20.7358
1 7.50292 2.04168 2.84297
1 18.6374 14.8174 16.7214
1 10.4259 15.6797 15.7397
1 4.51403 0.257979 9.02647
1 19.4253 12.4541 26.7687
1 8.84345 6.26631 23.7133
1 30.3557 19.7215 26.0021
1 5.83426 28.4571 28.0079
1 12.3961 13.2297 29.6669
1 30.2162 16.0729 20.6129
1 11.6161 24.5104 30.3257
1 17.001 5.92605 27.8758
1 25.9498 9.98432 23.5124
1 12.9107 7.85282 0.289119
1 20.8264 16.8671 4.637
1 5.2452 7.88567 11.119
1 22.4511 21.6456 10.8673
1 6.45181 4.65745 0.57186
1 10.6641 1.50187 20.9772
1 3.07092 30.246 14.5436
1 25.2732 25.8821 16.9952
1 11.7091 9.16012 24.4428
1 19.6982 9.40752 14.9518
1 8.53829 22.2325 29.4155
1 5.48758 16.6617 4.44065
1 9.81885 19.8059 23.0985
1 16.699 3.49342 28.4931
1 15.8339 10.8269 3.2765
1 5.67784 27.9398 2.35254
1 9.33773 11.3152 10.5757
1 19.086 5.08297 9.27059
1 1.39136 0.257847 8.993
1 22.5715 4.39524 16.7734
1 15.4082 2.3608 2.68611
1 18.8306 28.922 29.2733
1 11.8609 29.4118 1.02076
1 20.2129 13.8966 29.5087
1 23.6596 1.92722 4.23359
1 6.46401 1.98139 16.5317
1 9.72797 2.29546 6.92464
1 2.64897 0.795371 2.21416
1 3.71405 16.0082 19.7335
1 24.31 3.50759 11.2557
1 21.2653 20.7937 3.56154
1 1.88905 4.58881 4.9016
1 5.81684 30.1529 22.7627
1 26.8714 23.9934 25.6165
1 22.9875 8.21981 2.94106
1 16.4976 0.799083 9.31035
1 2.2697 16.5543 20.0922
1 27.9836 6.74617 25.7111
1 5.96171 15.5364 24.339
1 8.14625 10.9766 7.18698
1 30.7248 6.94043 10.2075
1 3.1103 6.18717 1.04167
1 7.71762 17.4905 8.14724
1 29.0478 10.4414 27.4128
1 1.9834 17.6948 6.95828
1 4.33253 11.9975 25.4082
1 20.4286 1.06591 28.6275
1 24.0137 10.7846 24.9259
1 4.82181 0.784145 29.7101
1 8.61597 2.73308 3.49102
1 18.7938 19.763 16.5597
1 24.1302 25.0911 29.0135
1 8.04446 18.5218 29.8508
1 28.6548 8.67718 7.38225
1 12.8555 0.256041 21.3525
1 7.9224 16.1502 27.9355
1 10.2138 11.6 1.41533
1 1.83624 19.6232 8.30354
1 28.815 12.8349 20.0112
1 28.3092 19.1302 16.8084
1 1.49478 27.2162 24.9743
1 23.1693 19.6525 19.6344
1 29.149 3.74579 8.9448
1 22.1707 7.82441 -0.0940133
1 18.4244 29.6651 0.421374
1 9.47668 19.7011 12.8158
1 7.91165 0.953087 6.44956
1 17.6458 8.05489 27.6494
1 0.850244 29.5819 29.2124
1 27.13 23.7911 2.32341
1 22.0659 26.0306 23.3113
1 4.26444 9.68924 2.59799
1 11.8215 16.41 6.31205
1 21.783 15.1464 15.9814
1 5.13813 19.3822 23.2331
1 7.76519 22.2656 23.4681
1 5.19842 22.2449 4.69964
1 2.91124 11.6702 25.5267
1 19.2724 29.2855 22.8916
1 16.1821 7.9415 29.7614
1 5.48125 18.1765 0.506548
1 29.426 14.7626 6.36836
1 14.1752 0.33644 21.8894
1 24.3881 8.39514 3.08268
1 4.01824 15.778 17.5737
1 0.315678 17.4741 27.5285
1 29.4076 22.4072 10.9546
1 8.7427 13.1085 18.4118
1 29.9068 17.9199 3.90213
1 0.866309 7.52042 21.3075
1 16.8829 16.7435 15.9817
1 20.2434 8.16844 11.5006
1 15.3449 6.65836 8.18784
1 15.3845 11.3037 30.2382
1 18.4554 16.0626 29.8283
1 22.1597 12.6323 17.3522
1 16.744 11.0754 6.42526
1 17.1201 16.877 18.8724
1 27.7955 21.1439 13.0385
1 21.3858 2.28113 17.6076
1 29.4933 20.444 4.53312
1 9.49993 11.9454 5.69688
1 27.7812 16.7687 6.77045
1 15.1629 13.1646 23.8267
1 22.1169 16.8268 14.0647
1 9.54267 18.0613 27.8726
1 7.5465 20.8487 5.34733
1 11.424 0.252682 28.0154
1 8.55777 16.7322 13.1772
1 12.3279 24.8524 16.3946
1 24.6138 11.7755 3.48093
1 25.7925 9.50509 17.8161
1 4.51576 16.6646 26.1066
1 16.1569 20.2943 17.2202
1 29.2203 0.906471 29.3078
1 24.9955 1.54318 21.5706
1 7.57134 9.57699 11.6062
1 23.745 3.46393 23.416
1 8.67701 19.4783 18.336
1 25.5736 21.6089 11.687
1 14.4642 11.0079 13.7611
1 2.47791 27.8812 13.3638
1 29.3351 6.10389 19.5752
1 14.5872 20.4655 9.65626
1 11.9924 23.7885 28.9554
1 21.1759 1.21386 18.7984
1 29.8442 19.2739 16.7058
1 0.366778 29.6186 13.0449
1 12.597 26.8045 19.675
1 0.993647 2.22717 20.1821
1 2.77669 11.7879 4.95015
1 1.41641 5.98243 18.6308
1 28.5064 17.992 0.339232
1 12.5259 26.4171 25.5026
1 28.4263 10.7958 28.9229
1 15.0015 2.54162 13.0422
1 6.39863 8.3386 3.52313
1 25.4922 28.7336 23.9869
1 11.9605 5.38318 27.8177
1 10.9751 5.6559 0.52326
1 4.57897 25.7514 10.76
1 27.2579 12.8883 4.62644
1 8.02382 29.0441 18.5397
1 4.44542 30.506 18.1055
1 3.18747 15.0189 7.96411
1 16.9351 3.82271 19.2463
1 17.078 12.1819 9.19309
1 5.09429 1.86741 14.6853
1 16.9744 8.74562 18.4723
1 25.3747 16.1393 21.928
1 3.67193 15.3904 16.2358
1 6.6476 7.60023 13.3622
1 1.30781 4.99829 20.446
1 29.2602 2.70672 24.5975
1 24.8315 25.0701 1.83896
1 6.21075 6.06383 4.15628
1 4.58691 8.35984 22.0567
1 0.84009 14.3207 1.35138
1 27.6455 26.8007 17.318
1 9.78836 3.26706 18.3039
1 14.0733 6.2072 28.1564
1 18.331 20.1399 17.8299
1 2.81964 9.07156 11.242
1 9.63433 7.17562 5.08252
1 10.5707 19.5514 17.2329
1 8.21402 10.5057 9.70952
1 8.29617 4.14727 27.0708
1 10.5048 8.338 24.6114
1 8.55368 6.59861 26.9169
1 4.48655 17.5172 15.839
1 19.4526 14.8417 24.0314
1 22.0174 17.2571 3.1067
1 15.8778 2.90008 10.4451
1 5.64429 21.0796 27.4883
1 18.5136 15.8096 3.93441
1 11.7854 18.7619 26.3166
1 21.4954 6.21595 6.31892
1 16.5561 18.6317 17.7051
1 12.7908 0.126604 7.76158
1 28.3591 23.4852 15.2841
1 6.34971 2.25523 15.108
1 9.55474 12.575 12.6242
1 18.9419 15.1863 27.6175
1 7.43016 20.8591 23.3817
1 26.1782 15.1148 8.60492
1 5.3844 18.9516 14.0625
1 6.52626 25.0591 27.0806
1 22.2718 19.5353 21.6566
1 8.54241 17.0235 25.3151
1 24.5416 10.3825 28.8749
1 13.6696 6.00832 10.2209
1 7.63255 6.08946 6.27254
1 13.2915 2.07754 15.198
1 8.20112 3.82484 23.6814
1 13.7154 17.8337 12.0472
1 29.938 9.27377 27.3882
1 10.1903 29.0382 11.9888
1 29.4384 26.3558 25.4438
1 26.7886 24.8293 12.1387
1 24.0185 14.1486 9.4208
1 9.42885 14.9074 9.7318
1 30.2123 3.26259 11.634
1 7.89649 5.54586 14.1774
1 28.5789 28.5948 6.2509
1 7.60952 7.27284 11.247
1 20.047 9.0919 28.3955
1 12.3453 5.61713 3.67908
1 5.88893 6.75758 29.4203
1 20.0046 20.51 11.7972
1 22.3748 24.0311 1.99855
1 28.9203 23.5251 19.6641
1 21.2491 2.09862 28.3903
1 18.4174 25.1143 7.98522
1 1.90959 22.457 13.6391
1 12.8882 22.9933 11.4064
1 11.4771 19.2542 15.0365
1 11.5265 5.54214 14.9013
1 20.7803 12.2014 19.8937
1 7.8596 22.0624 26.8395
1 21.9573 28.5578 11.0743
1 10.8228 21.6369 21.1693
1 27.8691 10.2097 17.7717
1 29.932 15.3812 25.8823
1 24.0065 6.06277 1.8343
1 29.7109 23.4454 5.15883
1 28.1437 22.2084 3.98225
1 3.50008 16.5756 1.66374
1 5.67689 20.3702 13.0577
1 0.780453 6.13503 21.2938
1 4.3877 1.52912 11.5617
1 20.6317 24.6402 20.6113
1 1.70213 0.920553 27.6059
1 1.73696 23.2873 24.9993
1 7.75284 21.256 15.6982
1 17.7176 25.2349 28.4598
1 27.4493 4.74129 0.723162
1 26.9443 0.327746 2.81118
1 7.98848 25.765 17.3837
1 29.3595 25.7088 15.8799
1 12.5269 4.5158 18.2442
1 3.45329 0.359712 10.8357
1 16.1008 27.1572 26.7235
1 14.3581 1.72901 6.95667
1 12.8895 25.4116 0.196792
1 14.0255 1.52878 12.8632
1 23.6855 15.5027 7.83773
1 20.93 26.5568 17.5613
1 11.486 23.3837 2.52034
1 27.8793 18.0725 27.5947
1 26.315 11.3318 9.59816
1 24.4084 8.14938 27.9146
1 20.4096 27.449 21.7414
1 30.2899 20.8839 14.7746
1 12.2782 18.5195 9.36455
1 4.46728 23.706 22.6717
1 18.2905 13.95 5.67981
1 18.7539 25.6527 10.5137
1 29.5525 18.6828 0.894132
1 14.0722 12.7801 11.3967
1 22.7964 26.3553 10.5455
1 0.683688 29.5565 8.58582
1 26.3168 17.3978 16.9415
1 26.7416 13.6128 10.368
1 26.9614 13.949 2.18807
1 11.0511 16.7786 22.8111
1 25.3198 14.7884 16.8886
1 0.583068 20.1621 3.12438
1 16.1849 18.3121 20.626
1 20.5398 11.0327 21.7195
1 24.9973 19.6852 27.1954
1 17.5133 22.5749 3.32365
1 6.6494 8.78344 16.8237
1 5.71316 21.5892 26.1612
1 12.2331 2.25365 10.5294
1 28.8517 9.01041 6.0943
1 25.7365 5.63393 14.6763
1 25.6765 13.3617 30.6891
1 8.88716 15.1946 13.3703
1 11.1815 14.4247 6.99692
1 18.7188 16.7688 26.0566
1 9.20309 8.46402 25.0292
1 24.7373 11.6598 25.5577
1 20.9898 11.6012 6.54448
1 0.487305 0.4523 1.04378
1 16.9013 2.71087 22.5964
1 5.67252 27.3321 4.60867
1 24.9963 19.0725 21.1965
1 25.3247 18.8386 5.66054
1 22.7324 5.44069 24.5848
1 4.64087 1.86927 19.6512
1 5.04808 19.4372 0.463534
1 0.165022 18.305 21.8058
1 29.7724 7.61134 29.2031
1 8.37151 14.8502 27.1562
1 17.225 29.2949 12.7283
1 14.134 3.74472 1.14678
1 18.951 7.24054 24.8831
1 20.9638 3.82802 15.1346
1 27.7625 16.2065 2.79566
1 18.2461 26.3544 2.47081
1 17.619 15.0288 1.89251
1 20.0239 26.777 12.3795
1 23.9792 24.9223 12.6232
1 1.28259 8.57062 7.8386
1 24.4608 28.4876 4.5393
1 29.1344 0.401111 6.64264
1 28.386 8.7972 4.89716
1 0.587089 14.2163 16.5623
1 14.1777 29.3003 8.50266
1 12.8061 12.567 4.41835
1 30.0078 24.5046 19.6629
1 23.9785 2.25418 8.00561
1 4.71162 7.69963 19.0555