4096
Atoms. Timestep: 780
1 18.8261 23.2554 8.12975
1 23.7409 13.6698 18.6233
1 4.54885 10.8292 26.0552
1 15.2595 7.29022 10.9281
1 22.9029 14.2949 10.7873
1 11.4628 20.3299 22.8226
1 23.5821 25.6398 6.05169
1 15.0356 23.9639 29.9887
1 7.85803 21.961 19.2041
1 16.0279 19.5825 28.7669
1 3.10976 22.3889 2.9971
1 24.3974 24.9481 13.6212
1 5.19853 8.39165 12.3348
1 29.15 29.95 11.1502
1 28.72 12.1667 10.577
1 30.0693 4.39842 13.0237
1 26.9855 1.89669 27.3834
1 4.57681 3.05733 28.1639
1 11.8285 28.9657 5.92881
1 23.0632 4.99604 15.5067
1 8.83565 8.33983 2.18727
1 27.5854 14.2489 15.183
1 7.78319 2.38593 5.39931
1 27.1722 8.96996 21.4386
1 11.2296 10.287 23.6634
1 16.8688 12.2642 0.818165
1 20.5751 24.4305 23.3015
1 27.0369 20.7236 7.45269
1 28.3547 11.9282 4.10679
1 20.3865 17.9169 1.72044
1 4.43026 13.2297 27.7725
1 17.7587 9.82341 4.42354
1 21.7593 5.61461 19.6936
1 10.4142 23.0068 0.201092
1 13.744 4.98296 5.6097
1 7.75601 12.3086 6.1784
1 4.04887 0.396057 12.8614
1 18.8153 6.57017 1.83018
1 21.9285 6.28623 13.3199
1 5.71232 6.8649 6.068
1 14.5175 28.2745 21.2229
1 8.26238 24.5383 8.3182
1 13.8626 29.1154 9.15427
1 2.39271 2.18873 1.41648
1 18.4497 12.9201 7.65875
1 0.727473 29.7944 9.66876
1 15.5565 26.1443 20.1597
1 9.49321 19.1436 25.2926
1 26.555 10.9958 18.1268
1 20.6833 22.3332 11.4776
1 9.85872 4.30103 0.58784
1 23.183 10.0634 10.1326
1 17.6517 7.40802 2.7546
1 9.87868 2.27808 19.475
1 14.1956 26.5035 16.5248
1 21.9529 6.16391 29.4873
1 15.2802 8.78656 28.5819
1 6.34751 3.61906 6.90206
1 9.10791 17.7343 23.0272
1 7.00561 28.4893 10.2155
1 7.73445 21.4539 26.3649
1 28.262 23.2501 13.6194
1 15.1592 4.10037 7.45397
1 12.2084 21.8772 10.6301
1 24.32 13.3471 24.7209
1 13.9328 15.9216 25.2562
1 7.50335 21.7379 28.7444
1 15.8737 6.0626 27.1259
1 15.3847 9.0235 23.0599
1 9.66476 26.2444 9.71512
1 22.7287 13.6613 6.92421
1 22.3302 25.9676 27.5238
1 13.5603 16.3641 3.67647
1 27.9886 17.3242 18.887
1 30.0219 21.3377 18.6103
1 5.20929 28.275 16.4926
1 22.574 24.3432 12.1084
1 24.6821 19.6839 4.2114
1 29.7008 18.9242 22.3822
1 4.33527 21.1922 8.58827
1 9.36104 4.26767 18.2359
1 13.2233 14.914 3.72611
1 17.1725 19.8084 1.94058
1 12.2326 12.4489 12.6154
1 25.4482 30.1211 19.6743
1 22.2673 2.67243 16.6598
1 10.2886 16.1533 8.12699
1 16.1683 2.06271 27.1193
1 18.4754 25.8195 17.4328
1 5.74642 0.659937 28.4517
1 7.19179 29.1686 6.58298
1 12.184 9.64208 10.1365
1 24.9143 4.55387 2.84574
1 22.4991 14.3748 23.8658
1 2.83289 23.3803 19.7407
1 10.3006 18.772 9.00543
1 14.473 0.652974 29.5098
1 18.5212 23.3582 22.2899
1 29.067 24.8244 30.1152
1 22.9174 22.5213 3.67196
1 12.2727 22.4476 7.33272
1 12.16 2.83008 12.795
1 10.2381 13.681 19.6648
1 8.27211 29.0538 16.7182
1 21.2888 7.7172 1.44227
1 24.1105 27.7178 20.1522
1 9.89961 27.5797 10.192
1 5.38862 16.7425 20.8654
1 13.8813 30.1211 23.3159
1 7.02869 27.4724 3.93595
1 17.5045 10.06 5.76568
1 2.67912 20.5816 6.16309
1 5.20116 7.42316 14.2624
1 27.3389 17.6207 13.6558
1 25.2188 18.5702 14.0709
1 23.6338 15.681 2.69419
1 4.18904 27.7303 10.6433
1 14.921 14.2659 29.0389
1 12.9211 17.0013 19.2206
1 1.17995 18.7758 29.9267
1 19.1551 28.4577 16.6346
1 11.9172 19.4477 20.2903
1 10.3918 0.315074 10.0099
1 26.5803 24.936 25.3313
1 8.1562 1.01281 24.6342
1 20.7 18.0827 9.59609
1 6.84356 11.26 17.1483
1 11.9134 13.398 7.62316
1 26.9211 14.6417 14.0751
1 12.4863 27.3822 20.1617
1 7.10678 0.676879 19.8718
1 22.2824 27.4517 7.61754
1 9.86374 7.54475 3.69365
1 2.15716 2.05941 0.0422829
1 2.9591 27.3613 13.4392
1 14.0838 8.32817 22.3662
1 7.93494 2.45379 21.0688
1 16.21 17.0944 19.1989
1 13.5566 15.0372 11.0545
1 15.9273 30.0356 4.49605
1 3.53304 24.8207 12.8735
1 23.2102 21.1043 5.65458
1 24.6442 23.3904 16.106
1 24.0127 3.61945 26.0827
1 5.32849 13.8154 23.642
1 11.9349 20.757 27.8513
1 27.9841 20.2445 8.37866
1 3.01219 0.42891 16.6885
1 10.5164 25.2528 20.1264
1 5.52628 15.6807 9.94142
1 8.9676 7.96952 20.9647
1 23.537 26.1206 4.59774
1 22.3593 5.81557 6.12013
1 15.5921 8.5719 0.602674
1 15.0565 15.9743 19.5455
1 27.4939 4.25241 17.2593
1 4.6168 0.354229 9.48522
1 1.29212 25.694 21.2215
1 1.19648 17.1705 8.92683
1 17.1833 22.1454 11.2745
1 12.6521 10.6177 29.5937
1 25.9325 3.39206 10.4525
1 10.5768 15.625 17.5589
1 4.09874 13.5499 20.7677
1 17.1008 21.987 28.4967
1 23.4794 24.6074 9.76635
1 23.301 17.6586 19.062
1 25.1253 4.5691 8.36459
1 22.3307 23.6309 29.9127
1 15.3903 12.1973 24.2295
1 14.853 15.9936 16.9852
1 12.7925 17.027 11.3144
1 19.8445 8.444 7.65601
1 7.01664 13.9202 2.72646
1 26.2981 0.351556 25.3189
1 12.1039 13.0013 10.3403
1 4.29286 24.8963 9.77231
1 6.98289 11.6158 11.0834
1 24.9598 21.8903 14.8385
1 13.9195 23.8672 10.1071
1 5.92763 16.9564 22.102
1 10.1502 11.4546 9.73902
1 11.6988 14.3436 12.2872
1 17.2397 2.89569 7.23734
1 26.6898 15.0587 28.053
1 10.4004 21.9601 24.3674
1 27.5639 7.0069 29.6525
1 2.67032 11.2677 15.2054
1 24.7804 22.3799 28.164
1 23.0718 2.37063 20.0923
1 1.25158 28.8736 11.7911
1 23.8541 17.7467 27.4269
1 8.12258 15.5323 13.5132
1 16.3512 10.0662 10.6408
1 17.5896 19.4107 19.4506
1 17.6481 19.6887 22.6815
1 1.06957 26.087 17.1287
1 29.8465 18.5276 7.51197
1 19.1522 22.928 25.0972
1 26.0576 2.29256 4.16124
1 3.25273 10.5594 28.0786
1 1.49861 22.8482 8.65722
1 25.1094 28.2741 16.2079
1 19.5811 3.1246 11.7125
1 14.9796 21.6002 25.814
1 21.6321 27.6897 11.9253
1 4.33024 17.2898 12.0699
1 10.4221 25.2517 22.5639
1 4.72537 19.5143 23.3087
1 18.0704 16.3175 23.0699
1 5.8615 28.8883 15.216
1 6.17109 14.1621 14.5864
1 10.2567 1.47119 20.5349
1 6.11975 20.4785 20.8077
1 5.15952 12.6372 12.3215
1 20.8917 7.51716 7.31521
1 4.70244 14.0286 24.7976
1 14.1356 11.7462 11.2465
1 12.9663 15.6543 15.4801
1 18.6992 23.7146 12.2989
1 15.9251 16.7174 28.0299
1 26.3792 27.9216 6.19469
1 8.51821 27.708 22.896
1 23.3854 7.28172 24.237
1 1.77767 23.9953 25.437
1 13.5462 15.6567 0.459188
1 19.0479 16.5933 30.1319
1 5.27828 23.0528 4.81604
1 24.3037 27.9281 6.75056
1 14.888 4.99672 13.9685
1 16.0765 15.1057 16.9484
1 25.164 25.7614 17.4828
1 26.748 24.0504 11.0422
1 30.247 13.4804 22.5346
1 16.7009 6.11704 21.5398
1 21.3071 25.2434 11.5394
1 26.3287 3.14807 9.14091
1 28.1574 19.1256 2.76069
1 9.84846 5.36385 11.908
1 0.88386 1.76381 15.3943
1 12.925 4.81421 0.243322
1 11.5602 5.52747 14.0917
1 9.44305 5.58136 21.5598
1 29.7203 7.45543 0.761592
1 20.1409 20.8919 6.84668
1 20.8067 17.1062 21.925
1 1.20879 3.13024 15.654
1 9.40598 3.68743 14.5193
1 8.64075 25.1569 15.5285
1 23.0316 23.62 14.8301
1 9.20046 12.785 26.6893
1 27.8316 21.9163 19.0676
1 25.6457 17.1087 20.6865
1 10.1402 14.7647 14.061
1 5.99998 21.5468 6.57557
1 18.1141 9.68724 12.8245
1 19.5309 8.59821 8.95834
1 18.2884 25.9879 0.975365
1 24.0878 5.69626 20.2049
1 9.9132 17.808 20.9982
1 4.68161 9.4275 21.7874
1 7.18416 5.40491 2.35883
1 29.9398 2.49715 10.0211
1 18.5818 3.43985 26.4122
1 12.1337 18.6223 30.348
1 13.6067 18.4572 9.62048
1 13.4641 14.5165 29.7507
1 12.3826 7.09396 2.22195
1 25.8462 13.2431 1.28758
1 13.4943 16.7247 6.11327
1 24.2382 10.9685 27.0961
1 2.65653 2.92879 9.64539
1 3.37648 6.91862 3.70424
1 1.4237 25.5237 8.07227
1 14.399 7.23481 25.0854
1 27.7014 20.3077 4.71901
1 30.3507 28.7791 0.397564
1 22.6392 4.61564 11.8977
1 5.08222 27.9942 28.2271
1 12.9774 24.3978 24.1158
1 11.646 27.5734 6.61072
1 15.7118 20.978 6.91712
1 2.65943 9.21636 7.58347
1 10.4944 13.1002 28.7341
1 19.9927 23.5091 11.3232
1 1.73599 16.5771 17.3909
1 10.234 22.5116 1.67357
1 2.14985 5.1451 29.6844
1 30.0196 0.1312 10.4967
1 14.2762 24.9768 8.80685
1 1.32986 26.2757 2.04326
1 28.0644 15.4916 23.6575
1 17.6785 11.8165 20.589
1 22.8614 30.5801 27.1729
1 22.3099 17.4716 11.3249
1 7.529 17.6915 6.8706
1 14.7785 19.7968 6.40448
1 23.1616 9.1594 26.0296
1 23.1679 19.7989 14.5137
1 9.54151 16.996 2.7364
1 9.20976 17.5247 11.8567
1 8.76501 15.8917 24.8569
1 25.0355 8.97917 22.8428
1 18.8657 2.31599 8.83559
1 1.66405 26.8207 19.213
1 12.5221 14.962 13.3546
1 17.2163 7.01161 18.6616
1 15.1075 17.8069 8.71858
1 2.3401 25.1028 11.7377
1 12.4133 9.19792 29.242
1 24.8252 6.04924 14.3069
1 24.9508 1.16297 16.8546
1 14.0228 12.4193 26.5302
1 20.2038 13.8869 25.2175
1 10.0483 19.4777 10.2924
1 27.9854 22.3958 17.0144
1 2.00523 25.2223 28.8929
1 30.4272 22.3309 20.6817
1 21.0171 30.3519 6.35344
1 8.78102 25.9105 8.76383
1 11.5207 17.4399 15.0085
1 1.73496 19.9736 29.8694
1 19.68 19.0009 15.1877
1 2.28349 15.8713 22.4026
1 22.5117 15.487 22.8972
1 1.94335 20.1297 1.53098
1 12.7992 7.20277 5.88361
1 9.73747 27.1043 4.91085
1 2.54052 6.78165 8.64045
1 21.4346 25.8678 21.4269
1 14.7648 7.46878 9.42122
1 1.32647 12.8731 26.3708
1 7.75803 1.98546 1.5592
1 5.05749 3.4318 24.4271
1 11.2118 8.55014 0.807774
1 4.6326 11.4642 8.09369
1 1.34281 4.96227 4.29023
1 7.52534 21.2336 23.5688
1 10.3698 7.23001 10.2464
1 7.89742 14.9115 2.28381
1 25.7659 12.0243 11.7549
1 6.87649 18.4974 26.949
1 25.6043 11.3772 7.82682
1 18.2964 8.50266 26.8782
1 22.9996 20.3441 18.3068
1 13.7463 13.8078 17.6019
1 9.75151 5.96487 25.5296
1 9.48226 23.9749 0.835613
1 9.36542 18.5079 29.1341
1 9.65512 16.4679 20.48
1 13.3381 26.6904 23.7388
1 22.2941 10.8241 28.9676
1 29.5058 18.6752 27.9435
1 7.18561 30.0899 14.7028
1 3.78631 11.2089 16.325
1 5.57534 5.22441 0.718885
1 19.2763 5.17658 8.72106
1 15.2846 26.955 29.0652
1 5.1267 0.242049 0.490127
1 8.16712 6.09848 11.0464
1 23.7828 22.4674 15.5181
1 23.5101 27.9828 27.683
1 12.0715 5.85973 17.4687
1 29.6625 3.9363 5.71231
1 5.48864 2.53536 15.8399
1 9.26166 24.6008 22.6954
1 3.04592 11.9969 19.0262
1 19.239 18.4362 2.35187
1 12.8798 2.12193 28.125
1 2.35767 16.5601 4.18473
1 11.6926 27.5996 8.71186
1 28.4439 20.4124 1.79563
1 12.9607 7.59966 15.1836
1 2.56281 27.3993 20.3725
1 21.6959 8.53979 20.5431
1 11.2373 5.88024 23.3208
1 15.721 4.32805 10.1483
1 20.4358 14.8072 14.9918
1 7.2411 21.4443 0.791128
1 24.0165 8.65417 24.1099
1 2.11731 4.3268 18.7653
1 29.9754 17.7101 13.746
1 24.951 9.31304 13.7265
1 21.3537 24.2126 8.63346
1 23.6986 12.8718 9.05856
1 23.4047 24.7196 15.8035
1 14.3449 15.5602 15.5819
1 29.7318 1.74744 5.71168
1 23.7254 9.94251 13.8438
1 0.460205 24.1207 11.3208
1 25.3078 21.6915 24.3908
1 14.8855 29.8758 19.8042
1 17.7939 1.08628 19.7796
1 2.03018 1.72614 9.55237
1 28.985 20.3972 25.7805
1 15.5094 21.1226 9.44767
1 6.81713 17.3199 27.5392
1 5.53674 26.0074 17.5455
1 2.86294 26.1064 26.5927
1 27.8322 20.431 22.712
1 21.7495 19.3379 16.3069
1 22.8822 5.11922 13.1585
1 26.5301 11.2047 11.0163
1 0.677803 7.19766 19.8127
1 1.17772 22.7392 1.47753
1 10.676 29.7074 28.9631
1 29.9662 6.97463 14.6523
1 2.13511 6.55545 20.3757
1 1.01545 19.45 20.4602
1 9.88031 1.10582 14.0203
1 19.6354 24.3538 2.01694
1 14.0207 29.1654 14.1432
1 10.9475 20.9706 12.9244
1 21.7412 29.1825 2.61343
1 24.1997 4.2919 19.6499
1 6.65908 9.53863 7.3745
1 21.2517 26.4279 25.0401
1 4.44301 23.9022 12.8807
1 23.5698 3.06241 3.98614
1 7.32602 26.7439 21.0814
1 27.5432 14.3509 12.9208
1 3.99058 16.2888 18.7426
1 10.6362 29.4942 1.23861
1 2.41908 7.87129 9.45402
1 26.4065 0.977459 13.5449
1 5.95627 20.7141 16.4876
1 23.0696 13.0417 29.7421
1 28.6869 16.7552 15.48
1 12.0791 26.8098 22.9207
1 11.0006 10.5939 2.18388
1 15.1283 10.8922 4.9611
1 26.8328 5.31577 16.643
1 2.76125 27.6312 10.3772
1 19.6923 21.4881 5.67069
1 21.8208 10.761 12.697
1 10.9218 25.8104 29.5463
1 5.94691 9.38418 6.23194
1 11.6945 29.2479 13.6697
1 8.41774 7.22083 2.71989
1 11.6998 3.71 18.7244
1 10.2316 5.72778 13.3673
1 26.2245 12.9292 19.5567
1 3.26109 30.4541 7.43594
1 5.83345 25.4795 14.5831
1 10.4288 13.2025 2.1108
1 27.4533 30.2504 13.3034
1 0.858234 28.4536 1.56986
1 2.91733 19.2095 25.8662
1 24.2044 5.11866 7.34469
1 3.19241 23.9108 25.2537
1 29.199 6.02048 15.2432
1 29.9654 30.1626 19.2294
1 19.9725 27.3182 14.4889
1 8.51703 12.8753 21.3925
1 16.632 3.98178 1.88753
1 6.53595 19.886 3.25032
1 22.7253 7.83764 25.8098
1 0.560202 12.9213 16.9705
1 17.9226 10.1499 20.3552
1 26.6095 1.09083 14.9867
1 6.97613 20.5075 18.6213
1 24.448 24.5511 24.2798
1 3.18652 25.4643 18.0595
1 22.7398 5.00369 23.6508
1 8.79359 3.24181 23.5899
1 1.72127 20.5724 20.3891
1 22.9913 7.98228 1.31508
1 4.65386 10.222 24.5833
1 25.4584 28.6081 30.0889
1 18.651 21.4621 15.0139
1 15.5793 18.5594 26.4837
1 25.8175 22.0015 1.96196
1 1.36358 28.8928 17.3145
1 23.1625 3.42691 22.0541
1 26.9295 28.1493 4.03448
1 6.98617 17.5448 4.14793
1 3.16478 14.6048 27.6247
1 16.4445 25.612 5.77584
1 2.69715 6.65575 13.9999
1 13.6728 13.8744 4.7848
1 5.08904 3.90846 15.9565
1 18.6078 6.16968 14.8106
1 1.86022 23.3246 13.5344
1 18.4549 19.4367 4.90598
1 18.4575 17.8378 29.9425
1 29.1142 21.552 15.0346
1 23.0832 7.14504 27.0461
1 2.17201 15.469 15.1991
1 2.37356 26.8705 4.78304
1 22.7579 2.01817 4.84654
1 29.9229 15.2721 5.15761
1 12.9334 25.7829 13.3732
1 9.81716 13.0471 12.5576
1 26.7665 29.1334 10.2556
1 7.91907 7.09363 22.6291
1 26.9118 15.0226 6.41133
1 5.24935 9.86818 9.88272
1 24.131 5.07432 29.9978
1 20.1004 4.50042 11.772
1 17.4529 3.41606 14.6552
1 7.50816 17.3512 26.2772
1 0.554751 22.9609 3.73966
1 17.9655 5.66428 24.7434
1 15.2866 24.3258 10.261
1 13.5842 8.175 9.49721
1 6.33838 14.7487 8.95505
1 5.35769 3.45272 22.0503
1 12.4452 27.1735 18.9366
1 24.1017 7.61752 28.189
1 29.8653 0.702725 4.6238
1 15.059 15.3239 7.28993
1 6.3188 6.23688 7.04602
1 11.6121 8.30696 4.06152
1 2.18106 27.2491 25.8943
1 4.26656 20.5585 24.2402
1 28.2915 10.7837 19.4189
1 3.37048 24.7956 28.8745
1 7.008 11.6804 29.2187
1 22.2117 7.8572 23.6487
1 30.1985 13.9381 13.3466
1 24.8996 28.7537 2.34448
1 29.9803 14.6737 23.3043
1 27.6876 2.20045 15.0905
1 1.26936 5.64592 11.378
1 23.6056 19.7457 6.20927
1 14.7168 1.66956 12.9437
1 16.4048 13.8047 11.0919
1 12.8026 15.0932 24.491
1 24.6361 0.299256 21.8425
1 5.47426 2.16295 28.7615
1 24.2976 30.1288 2.89197
1 25.7975 27.9156 17.5514
1 3.80692 13.0105 1.27953
1 28.8192 11.4171 17.582
1 27.8678 10.5112 24.8715
1 28.3905 18.1374 7.7116
1 9.99631 26.4623 20.2631
1 6.30705 27.3857 13.3899
1 2.33114 21.8563 1.66965
1 19.4225 0.720293 2.61642
1 19.6962 29.0867 21.9556
1 13.5046 20.7045 13.3174
1 14.3615 22.6997 9.00363
1 21.7787 8.02843 17.385
1 8.62995 3.08435 26.6594
1 23.8881 13.4336 11.6131
1 19.6587 28.6664 18.224
1 6.30616 8.02045 5.6044
1 2.43262 22.5768 7.53958
1 4.53982 9.19051 8.85594
1 8.13217 11.223 5.02267
1 25.2279 10.2828 17.9531
1 18.1742 14.0737 21.692
1 7.26845 22.374 21.6354
1 12.8105 9.38358 22.0272
1 1.87945 23.7444 11.0523
1 8.25654 4.6621 21.632
1 4.13708 4.75241 7.26336
1 21.5267 28.5141 24.5076
1 30.488 8.13251 16.7001
1 25.2934 22.2584 29.6441
1 28.8346 19.4599 20.1956
1 12.8336 12.3556 11.2558
1 8.50095 8.33345 13.387
1 11.6467 27.4084 1.68932
1 3.00196 13.0077 6.76833
1 5.77856 29.1957 21.1909
1 12.3095 3.78259 22.9187
1 25.3513 22.1053 21.9058
1 7.62506 13.8084 4.18133
1 7.60321 29.8879 18.8955
1 7.15338 22.9982 16.0641
1 12.579 22.5234 15.0471
1 0.876288 7.84302 28.6338
1 22.6011 3.9035 3.22107
1 22.6681 17.1044 6.08663
1 9.17463 14.1472 0.279709
1 13.1925 24.061 26.8797
1 16.8734 14.1001 6.29651
1 24.3351 18.3729 26.0616
1 28.2816 29.312 1.64587
1 10.9925 10.1851 10.6004
1 4.95386 1.21113 21.0018
1 28.1718 21.5864 29.5528
1 21.4304 5.88552 25.7169
1 4.29244 13.8642 30.3988
1 13.213 23.5334 19.015
1 19.8056 0.607472 4.35251
1 4.76169 1.79672 9.84646
1 3.43024 5.61776 3.27598
1 27.7613 11.7176 1.618
1 25.51 24.0511 7.04483
1 14.3705 7.05719 15.826
1 1.58739 15.1216 17.6626
1 17.4755 13.0727 13.4754
1 9.46956 10.8799 29.1462
1 6.71468 8.6258 20.7589
1 20.217 27.7498 11.7122
1 26.0189 26.6977 10.9218
1 9.74783 0.901415 2.65796
1 16.0631 28.6661 27.5464
1 19.1978 21.3569 20.967
1 17.4916 9.17539 24.9484
1 14.9148 17.4404 13.0438
1 27.0859 20.9981 13.6966
1 26.2427 3.69624 7.83645
1 3.6122 3.60829 7.01365
1 25.0967 15.8024 23.7562
1 11.3237 17.512 16.2938
1 4.62966 0.712818 22.485
1 30.2505 6.74032 22.6528
1 27.0299 27.6352 9.88938
1 9.66004 1.49214 12.2239
1 28.3566 19.0351 22.6292
1 9.91617 18.1257 16.6057
1 14.9483 28.1083 28.4102
1 15.7796 14.1431 12.2727
1 21.3121 5.59505 17.4266
1 13.8217 15.8233 8.60728
1 17.2511 6.72555 12.1909
1 0.334011 21.5943 10.3678
1 28.6246 24.7326 20.1744
1 29.6949 15.4152 8.53208
1 2.90668 14.3024 3.03746
1 4.35052 29.2614 12.9268
1 8.65798 11.8173 18.4635
1 24.3728 29.319 26.1359
1 2.0096 5.33705 15.8998
1 0.887921 23.0779 26.0791
1 3.5622 22.296 20.286
1 21.6167 23.1765 5.75639
1 8.86217 29.2422 0.731938
1 18.208 16.105 13.8517
1 21.4161 14.3846 28.6406
1 1.66446 12.1611 24.1426
1 24.1008 18.5516 23.7051
1 22.3804 29.5902 23.7294
1 25.5151 21.9184 10.2213
1 10.4375 25.4885 2.64227
1 19.0008 13.4957 28.1401
1 3.36677 3.20361 3.47771
1 10.842 5.71638 20.5677
1 2.5052 20.635 13.4877
1 12.636 15.7256 16.9256
1 7.69259 19.5604 27.8463
1 29.5364 28.5403 12.9725
1 3.27257 1.46575 6.87843
1 6.30702 17.1817 19.7804
1 27.8539 0.437596 20.4019
1 0.0794098 4.78307 21.1829
1 18.2488 22.0305 21.899
1 2.80351 0.962909 12.358
1 17.8034 29.5671 2.16769
1 29.8325 9.75803 14.4352
1 4.93161 16.7377 14.6466
1 24.7533 26.2659 8.46108
1 22.0459 2.18732 27.7747
1 13.0839 5.8661 6.42541
1 22.3201 23.3631 18.9782
1 23.8218 26.6698 7.14489
1 15.1091 4.168 20.347
1 14.6835 1.15637 8.39392
1 12.1113 4.06305 14.9912
1 18.3149 24.5713 26.2432
1 5.87975 18.0019 13.9749
1 7.23963 24.0562 28.9445
1 5.45938 0.581623 11.9315
1 17.4336 13.4106 16.2405
1 22.0076 20.4797 10.8737
1 7.04532 8.37702 26.9879
1 25.4377 11.9204 16.1527
1 26.0948 26.514 20.4656
1 6.05994 24.3323 24.3418
1 14.976 20.4087 17.6449
1 6.65026 27.7747 30.2201
1 2.01108 22.8581 12.0341
1 29.9503 10.0567 17.9901
1 24.6537 16.6012 18.5783
1 9.15429 13.1832 2.56228
1 18.0822 12.5744 25.1818
1 23.0586 13.5474 5.58833
1 1.56263 25.0006 2.92848
1 21.6354 17.8352 8.16967
1 9.11385 28.9401 20.2563
1 2.30666 23.4355 9.64556
1 1.14235 21.8329 25.3421
1 4.46259 29.1916 6.08373
1 19.226 15.7988 23.1563
1 5.00396 3.22957 13.4614
1 16.5522 3.52624 9.33863
1 26.0619 18.0422 24.5019
1 21.281 13.8942 15.4186
1 22.2524 1.87647 0.359017
1 11.0031 22.8102 16.8057
1 29.3438 20.8099 12.5615
1 25.4537 25.4069 29.5739
1 28.7302 16.8549 6.58915
1 19.9591 0.798845 19.6731
1 18.1973 18.6567 17.3568
1 16.4906 13.8186 8.80886
1 5.808 27.5056 2.3948
1 4.06132 21.5624 28.7952
1 11.8995 9.15644 23.1914
1 12.5187 25.7687 4.11535
1 29.2937 12.153 15.3597
1 21.1994 3.47006 18.9128
1 6.67335 10.4551 13.7049
1 14.7357 23.9537 12.8111
1 7.06106 23.9075 13.4562
1 8.52169 23.3425 4.27603
1 5.61824 25.4901 9.90125
1 13.3749 3.02016 21.8731
1 15.1788 8.26459 25.1491
1 24.1338 13.9624 29.9886
1 29.4232 1.42189 28.9152
1 25.1516 13.9933 4.63673
1 15.5858 4.45449 11.5797
1 13.4196 29.3195 17.8383
1 15.1781 28.6566 18.9653
1 4.0033 9.25484 28.2511
1 7.5478 26.0067 3.9915
1 13.1061 20.2447 2.57536
1 21.3934 1.73682 12.3354
1 12.8387 3.77809 20.9072
1 1.71671 5.91758 6.59695
1 22.9506 5.59584 7.5647
1 2.06979 17.2149 1.51044
1 20.7081 14.332 21.6775
1 13.745 20.9351 24.9864
1 20.6526 20.2789 18.1621
1 10.495 17.3335 10.4349
1 11.0819 14.1797 15.1088
1 19.4477 16.5752 20.2062
1 18.0078 28.3311 25.6987
1 4.69458 11.629 1.28733
1 9.99864 3.13147 3.0322
1 10.5818 16.3426 29.9425
1 2.55203 13.2746 14.1822
1 15.5566 15.8225 4.85918
1 28.5827 28.085 6.69217
1 14.3819 23.7412 4.86138
1 15.8525 14.5729 19.0379
1 14.0937 13.0152 21.3959
1 17.7314 22.9036 19.5378
1 12.1098 16.6524 2.78378
1 24.4725 16.0064 11.8926
1 4.25414 13.7637 2.52842
1 6.89225 19.1958 11.9118
1 14.8461 2.28331 25.0646
1 5.84283 20.7975 5.4574
1 2.50526 6.14802 25.589
1 10.6204 23.2195 28.422
1 16.4803 0.728256 12.1613
1 29.5699 26.0175 22.5916
1 23.3735 9.63265 5.48954
1 22.8443 23.0796 12.465
1 13.9796 18.0473 15.9391
1 18.9329 24.661 8.88084
1 15.4036 3.8552 23.2123
1 15.9373 14.2377 14.7441
1 26.9953 17.3838 20.3225
1 0.763407 16.2216 12.3751
1 18.1302 3.1725 11.0432
1 19.8874 2.21371 0.640598
1 14.1417 22.7562 17.7776
1 22.1433 6.71963 17.1295
1 3.72781 24.5863 7.16631
1 21.0939 26.0546 16.626
1 12.3765 5.49077 22.9214
1 21.5766 25.02 7.40563
1 18.4062 15.9632 9.73218
1 24.1851 9.85801 2.7064
1 8.12592 21.1484 1.90923
1 5.16341 6.31652 15.3948
1 23.9899 8.22927 17.6562
1 10.8231 30.0786 14.1783
1 12.33 18.8785 7.05961
1 28.2269 7.71451 22.9487
1 30.6784 8.3387 7.78311
1 2.50646 27.783 15.7159
1 3.9604 7.94778 19.4099
1 3.68879 2.05698 22.9235
1 13.8342 12.6061 4.17841
1 18.7346 29.0979 26.7468
1 28.9773 7.13862 27.5748
1 8.03203 8.44261 23.4315
1 22.2887 25.42 2.30714
1 14.4411 10.7629 1.26982
1 24.8057 15.3637 14.5392
1 6.62053 10.8948 4.50275
1 12.4879 5.44114 13.0992
1 28.0902 23.2922 23.8212
1 20.2355 1.08867 20.9953
1 28.6967 26.9675 17.1592
1 12.8374 11.6285 28.5252
1 29.4777 18.8455 4.89885
1 20.6506 12.9718 26.2485
1 0.752937 29.0226 4.00607
1 12.6681 27.4585 11.6855
1 3.59744 6.67894 24.7296
1 3.99223 25.5358 20.4542
1 7.73422 24.8193 24.3887
1 13.9303 28.2363 0.190107
1 26.2265 5.11776 0.696644
1 3.06098 29.1888 6.69975
1 12.7382 22.2303 4.77785
1 8.62589 29.4268 6.8254
1 18.4723 10.4851 23.2574
1 0.312571 19.2783 10.4633
1 3.51302 11.0147 23.9324
1 23.4602 29.2328 27.0684
1 18.0196 1.31569 14.2113
1 12.1548 15.5934 1.64826
1 19.3949 14.514 22.5358
1 6.48741 13.3779 19.9835
1 18.8914 8.1547 23.1357
1 14.3675 9.64658 2.31793
1 8.73479 20.0699 3.95875
1 19.6296 12.2888 16.7766
1 1.38237 13.019 14.9826
1 19.5954 24.1775 22.1543
1 14.0418 9.8199 26.8328
1 10.8382 11.883 12.4687
1 2.33798 6.49871 30.2738
1 28.3721 25.2888 26.9133
1 8.05967 9.2234 21.0585
1 8.82182 13.1589 17.9338
1 13.1879 3.3975 24.2973
1 5.11505 15.5296 5.76685
1 11.1719 24.8966 14.1322
1 6.06491 10.1362 24.1684
1 21.9948 20.6044 24.6558
1 18.1811 26.9727 11.0608
1 26.158 5.93335 17.7115
1 29.6994 27.5902 10.742
1 22.8521 8.51206 3.76005
1 28.6467 12.3061 27.4837
1 4.19351 11.2063 5.21727
1 21.5046 26.28 17.9784
1 4.94487 22.9587 17.2464
1 12.2544 19.208 22.7543
1 11.686 6.86783 24.525
1 15.1626 22.9724 26.0668
1 3.31681 26.9608 8.0462
1 17.171 24.3454 2.64855
1 10.7507 19.3802 24.8359
1 3.25996 19.7955 27.1449
1 10.8535 11.5686 20.7635
1 5.56787 25.9084 29.3555
1 24.7913 0.330624 4.28123
1 18.4171 13.0121 10.0945
1 30.3965 17.6694 3.22122
1 16.8502 19.231 15.0258
1 13.9979 8.54917 4.86827
1 27.2478 21.2292 16.2939
1 24.7421 0.330455 10.6361
1 1.2909 2.82942 27.4603
1 24.7633 5.96337 22.2661
1 24.4011 9.19771 25.2748
1 1.39026 17.6808 12.0796
1 1.94068 4.73782 5.62839
1 11.4287 3.0006 15.9383
1 24.1895 5.21005 16.4168
1 16.0927 21.1727 24.8015
1 6.44694 1.54363 26.0459
1 27.661 24.3351 26.1049
1 0.391495 18.5506 12.7898
1 3.31447 29.7241 26.0957
1 13.6851 5.11513 10.7137
1 1.65699 26.0485 23.7134
1 24.2541 19.2191 14.9027
1 6.80595 1.2857 7.00968
1 3.45028 9.4285 6.39158
1 29.3526 25.6006 7.10607
1 18.4942 9.30477 24.0454
1 17.7373 22.7026 17.7736
1 21.2197 6.89417 6.1874
1 25.2957 22.5151 25.6927
1 18.5577 12.3786 21.6002
1 17.9696 18.6857 23.7819
1 26.3731 16.1782 4.04866
1 4.4035 21.7195 0.805909
1 12.2148 14.7389 28.0385
1 24.8435 14.1992 15.6202
1 4.38227 8.12897 29.0255
1 23.1109 28.014 17.8617
1 7.74297 17.7253 23.8213
1 10.4816 13.895 0.537992
1 17.6773 11.7909 23.8613
1 8.70408 13.0399 11.6383
1 16.9382 2.68025 2.24478
1 9.38595 27.8846 0.743708
1 11.0668 21.8386 10.3743
1 8.70024 21.7761 9.69956
1 26.2934 26.3229 26.1256
1 21.0155 16.9929 17.763
1 12.6774 16.0077 27.7244
1 22.5415 17.1492 8.88061
1 27.3937 3.64023 11.555
1 16.4423 3.86508 12.5911
1 3.15046 23.266 29.6548
1 26.2757 24.3 20.9523
1 25.0455 20.3843 27.1601
1 0.817473 4.56391 9.44539
1 27.0078 25.6227 22.9527
1 25.5679 7.91376 10.4509
1 18.1968 12.5896 12.3558
1 17.6823 26.0841 14.0998
1 23.733 1.18152 21.2852
1 19.0454 9.47531 13.9428
1 24.5345 27.2623 15.3617
1 -0.0928359 27.3036 9.43673
1 18.0578 9.44834 6.71572
1 19.0334 13.6574 24.6416
1 7.42182 25.6681 5.58738
1 26.5812 8.38518 26.257
1 6.13665 6.16415 16.4943
1 25.4596 13.9806 3.29513
1 12.5844 29.1478 8.27569
1 11.1411 10.7686 4.71928
1 12.0216 9.2689 8.58334
1 12.5208 3.32948 10.5946
1 20.679 18.4717 15.8237
1 1.45712 28.9888 13.1306
1 7.45032 2.09357 15.1208
1 18.9021 15.1186 29.899
1 23.9532 19.8608 7.53249
1 12.0652 6.98119 9.77193
1 18.2969 3.7357 17.5384
1 13.2476 20.2577 15.7017
1 7.82524 0.992684 8.24759
1 23.868 9.37588 21.876
1 19.1936 22.3556 9.21292
1 26.3843 4.56326 2.16094
1 7.31342 16.7889 24.6545
1 6.22923 15.6565 24.4438
1 22.5224 3.15289 25.6625
1 18.1084 6.51206 25.7994
1 28.1798 4.32815 23.2297
1 8.78893 22.0815 21.7399
1 18.9474 25.6551 16.2183
1 6.78914 16.5403 11.6208
1 26.8938 25.8259 15.7817
1 11.116 25.2931 27.6031
1 21.2176 11.3378 16.1042
1 0.92933 9.23648 14.6105
1 0.71794 29.9183 13.9692
1 25.0238 24.1254 25.4594
1 4.88288 12.9538 3.60279
1 17.2053 23.8149 21.3535
1 29.9232 7.69612 26.2433
1 4.3642 19.4378 0.440603
1 29.2687 13.4416 21.5716
1 25.5178 21.3676 13.5239
1 22.6818 12.0069 3.25338
1 26.9101 1.90589 9.26264
1 20.2518 9.89806 21.4318
1 22.2661 3.81979 15.494
1 22.9232 4.68386 27.823
1 16.2709 13.5575 13.5536
1 16.3042 11.8725 23.1259
1 11.1534 15.2094 0.510939
1 19.4761 10.4052 26.0376
1 5.74726 9.51714 16.3129
1 7.16184 16.1959 14.7731
1 10.2168 29.8593 18.3128
1 16.9481 6.60981 8.55317
1 1.42582 13.3148 28.8979
1 15.3809 28.7196 24.8039
1 29.2855 5.96889 8.27669
1 28.0687 24.4794 8.83156
1 15.0929 28.2143 22.5446
1 25.1245 10.1255 1.34426
1 12.5883 8.35095 17.9941
1 22.8977 10.4673 17.593
1 29.4404 15.5035 10.1159
1 21.5211 23.2338 14.5688
1 16.1704 12.1524 20.8503
1 23.6518 30.3459 29.4482
1 8.88673 3.3267 21.274
1 20.0349 11.8787 11.4176
1 14.2287 0.768158 22.1324
1 3.48312 10.0523 17.3907
1 19.1681 11.8472 25.9995
1 19.6751 2.77977 15.7215
1 5.82777 2.40441 21.2276
1 3.34749 4.37569 29.6235
1 19.9249 8.55266 5.26231
1 5.20705 15.0322 11.1904
1 5.42859 7.21181 22.4677
1 28.4518 26.6487 14.2604
1 15.6702 2.78873 19.1933
1 11.9739 20.999 2.4594
1 14.8544 1.83927 20.1105
1 22.1593 22.4477 30.4361
1 14.1705 26.4026 29.6377
1 4.83765 17.8578 2.57109
1 25.0819 3.07297 14.9559
1 25.9526 0.674794 29.5274
1 5.13109 12.4918 9.56364
1 4.35116 16.7703 1.85044
1 23.191 5.56509 29.0928
1 7.9189 29.3187 13.8616
1 4.95153 10.4286 15.545
1 1.68607 27.1945 24.6329
1 17.5825 25.0119 20.8746
1 22.4301 25.3138 3.71359
1 26.0478 15.264 2.85008
1 11.33 22.1285 12.7117
1 22.0134 21.5252 20.5024
1 11.9437 21.227 21.6891
1 12.6259 17.3418 22.1665
1 5.11922 1.97367 11.2119
1 4.68089 6.16545 17.8402
1 11.2449 -0.0254204 17.7095
1 22.3013 27.1466 18.45
1 20.8812 7.75093 14.9749
1 5.55601 20.824 7.91976
1 28.605 24.1404 12.5955
1 10.8714 4.20037 11.3663
1 10.7418 8.20036 26.3959
1 4.60238 16.0141 26.1305
1 0.945465 1.03329 20.9538
1 17.9812 13.3387 4.02611
1 24.6122 24.4933 1.43059
1 27.1403 26.3943 14.4558
1 7.14565 10.26 11.3667
1 5.14263 3.07372 11.8851
1 7.96887 14.8608 25.7906
1 21.9404 0.669867 25.9949
1 2.62828 8.13651 22.3952
1 14.7196 26.5626 11.7989
1 9.53412 17.3 8.15632
1 17.7986 28.2918 13.766
1 29.9149 4.93462 18.6389
1 17.0085 27.4951 11.7343
1 3.2895 6.5173 17.222
1 25.7844 27.8653 1.91251
1 27.8192 0.231637 22.635
1 23.4767 2.57335 10.3707
1 28.5248 22.1646 27.2168
1 22.6827 13.9804 9.36043
1 22.7592 24.3306 19.9194
1 21.0676 21.3545 27.4595
1 12.0836 29.9902 20.2301
1 29.1217 1.56472 10.5259
1 19.9612 16.998 0.5896
1 2.11247 19.7523 23.217
1 4.07406 11.4431 29.2433
1 8.51934 3.63737 3.12304
1 15.9987 9.95449 21.7225
1 24.3642 3.94946 27.4631
1 13.5576 12.4187 20.0434
1 3.19628 25.7188 4.72537
1 18.3267 2.64532 21.7691
1 18.613 16.1899 14.9623
1 17.51 28.8447 28.1308
1 3.80394 1.16455 14.2341
1 28.9161 8.82199 5.94938
1 11.81 25.959 0.47104
1 16.5459 10.6377 14.2746
1 3.01896 17.7222 21.7848
1 3.22334 8.99564 8.74439
1 4.88813 21.7949 14.1979
1 15.9322 25.8506 18.8174
1 21.3274 11.0722 11.3638
1 17.1731 22.7344 8.02822
1 4.68883 11.9569 13.6187
1 12.3487 4.47174 17.6587
1 8.49999 23.7652 24.8428
1 8.57087 28.5987 24.9701
1 6.01967 24.0591 6.52307
1 4.0905 2.95457 9.07607
1 27.067 17.6115 12.2212
1 7.48477 22.0662 6.07842
1 25.5966 11.9459 21.8493
1 23.2952 22.2008 26.0963
1 6.60606 21.4601 12.2428
1 28.6023 29.5736 29.1541
1 29.994 15.1487 14.2846
1 18.5753 2.59596 14.5879
1 14.3754 14.9919 9.86004
1 24.5419 2.84497 12.9331
1 28.7939 19.1884 15.2799
1 21.5538 27.0437 26.6885
1 30.0969 2.24946 1.04525
1 21.6982 7.13962 28.3797
1 24.8373 11.5381 0.817001
1 9.64061 5.51412 28.3552
1 30.2998 12.813 14.2575
1 8.61853 14.8575 6.12233
1 10.3219 20.4998 0.276183
1 14.5204 11.5886 9.72093
1 4.59451 9.03143 15.6754
1 3.23056 7.62 1.13562
1 9.9489 21.0908 4.27439
1 20.4224 29.7198 2.3185
1 0.344717 24.2183 29.6331
1 14.6754 8.38535 20.1912
1 21.4833 3.14586 2.62053
1 27.9319 27.3958 12.1464
1 27.4388 24.3575 19.0556
1 4.63918 14.9492 16.3919
1 8.7439 22.9817 14.2562
1 9.69906 6.47881 11.0573
1 14.0961 1.27746 4.17206
1 16.5679 13.2854 27.5004
1 7.17626 18.54 19.772
1 1.4807 14.7285 19.0661
1 3.33469 25.7134 10.4523
1 29.6492 18.5788 0.933698
1 15.8311 3.13025 22.2125
1 8.42553 26.8995 7.47709
1 9.1891 23.0946 22.7247
1 27.2377 16.7689 0.578736
1 4.51608 25.3695 5.25441
1 22.0948 10.8757 10.1209
1 7.38238 3.46154 6.23369
1 7.16988 9.48446 1.88742
1 6.27263 6.37422 12.276
1 19.4639 6.02514 16.061
1 19.8227 26.9852 3.90662
1 30.0448 28.6613 11.7457
1 28.8538 4.67359 0.626652
1 11.4977 19.0871 8.20606
1 17.513 7.55769 28.8154
1 30.0882 9.47727 8.35515
1 0.483209 0.370741 29.0206
1 10.2589 24.2677 18.8015
1 17.4464 20.7452 25.7157
1 26.5655 18.1276 15.9087
1 21.8781 17.9072 2.25908
1 27.8233 20.877 12.5615
1 30.491 27.966 5.20514
1 6.52722 23.4964 10.6481
1 12.3639 15.4302 8.58595
1 8.33733 12.2528 7.43916
1 15.5991 3.5136 4.02904
1 7.69126 26.9629 29.1286
1 23.3492 29.988 18.2769
1 8.61001 5.03984 3.54142
1 1.1992 11.5759 25.5537
1 0.402094 8.94454 21.5234
1 23.6546 24.7061 22.1134
1 16.4251 20.2926 29.9198
1 20.883 1.31166 30.1702
1 11.2489 6.39926 16.328
1 6.84145 21.2756 24.6388
1 18.5136 29.9272 14.4263
1 30.0438 20.1554 7.18098
1 14.8712 15.6395 1.41571
1 3.27263 17.8363 25.3046
1 28.1468 23.1893 10.0395
1 29.1956 16.0036 23.1925
1 3.54656 13.5427 5.51101
1 0.473718 15.5114 10.7381
1 7.41377 17.7244 12.1805
1 2.33049 3.95395 24.4434
1 7.98332 28.5951 4.07493
1 2.78538 26.5983 14.6838
1 2.44842 18.1535 11.4774
1 14.2831 2.02322 9.38519
1 19.894 8.94096 2.80422