4096
Atoms. Timestep: 480
1 17.3121 8.10292 8.61089
1 22.8703 18.1612 19.4734
1 8.73247 14.5603 2.41612
1 19.8349 3.52072 22.9225
1 29.9396 23.5934 5.48962
1 16.0334 12.7723 27.9256
1 20.4876 27.7746 8.44561
1 28.1349 28.8179 9.16102
1 13.9202 29.4348 6.61803
1 25.3362 12.603 30.574
1 17.8023 5.82852 15.2469
1 25.3231 2.30469 11.7491
1 3.8307 4.19225 19.4916
1 13.3412 1.70391 2.01409
1 22.4123 20.0074 15.4659
1 7.59951 1.21618 26.3026
1 28.599 27.2593 15.7966
1 11.7463 18.0852 27.6119
1 2.7103 16.2728 30.1054
1 26.4488 28.7729 19.2723
1 11.4462 26.0846 12.5493
1 10.0247 21.8794 15.6207
1 15.4206 14.215 16.4884
1 7.17178 19.9003 26.3306
1 9.53438 5.17647 17.2245
1 21.6959 13.5879 16.9655
1 18.5403 5.53004 8.84351
1 3.93108 5.24198 14.5476
1 23.8858 15.3173 29.3857
1 5.54053 27.6992 26.863
1 4.92464 18.1213 17.3734
1 4.26597 11.5416 28.044
1 14.8533 20.5409 11.2003
1 7.62198 11.4521 13.9853
1 4.04661 22.6099 9.44672
1 4.1675 27.1411 14.6704
1 24.4282 3.91251 15.7347
1 15.2406 23.4017 23.277
1 3.46941 12.7772 30.207
1 24.0839 5.26878 15.5665
1 16.1712 7.05985 12.3562
1 28.2042 17.8994 4.54449
1 8.60996 11.5792 10.2405
1 18.2298 15.3176 17.2828
1 21.8588 4.83145 23.0044
1 12.3432 19.7646 22.2639
1 13.3754 3.61728 19.5015
1 12.969 6.51031 21.3976
1 11.4465 23.7845 16.1367
1 15.7215 27.1386 15.6173
1 12.7269 29.1806 5.68736
1 20.9661 0.848061 15.1005
1 7.95031 19.332 14.1922
1 11.9331 9.59374 5.24154
1 10.5248 1.89797 25.823
1 20.9628 3.88083 18.7006
1 4.40222 8.78617 16.89
1 11.1581 0.0483195 3.66578
1 7.06379 30.2942 2.9584
1 24.3681 11.92 24.0207
1 28.0313 5.32682 17.5893
1 7.13664 27.1251 9.51825
1 21.0467 14.0503 7.8412
1 3.62284 9.64932 5.39972
1 5.62355 2.01079 14.2116
1 22.4753 19.6553 16.9159
1 11.6802 20.977 2.29701
1 24.2293 18.452 12.5888
1 6.64555 1.39988 21.4162
1 21.2407 6.98603 10.3677
1 5.57392 17.8015 27.0106
1 22.5166 29.2037 7.83263
1 29.5692 3.88182 29.2205
1 10.755 27.6229 14.8447
1 26.1028 9.73721 9.5328
1 28.7771 28.5499 25.4422
1 5.09124 0.717853 6.08703
1 -0.00772383 28.3608 21.9999
1 4.0676 12.5765 27.1275
1 5.72723 -0.111373 24.4967
1 18.2248 3.67338 3.85849
1 17.4596 13.5464 25.4354
1 17.1265 28.6753 12.2449
1 29.9711 20.9271 26.2399
1 24.4886 5.78738 6.3647
1 1.16626 25.6125 8.23692
1 20.3184 4.00069 2.89842
1 26.4562 27.3019 27.6388
1 17.0014 5.03057 24.9135
1 3.09743 5.95674 18.1866
1 21.0694 27.1436 20.8598
1 12.3179 11.2062 9.84283
1 29.7213 19.4962 26.2779
1 0.954074 15.5333 13.3002
1 27.1081 23.2223 30.1949
1 20.4693 24.5668 11.092
1 23.4945 19.306 7.98199
1 6.20031 2.59527 0.941368
1 25.0495 3.32486 21.356
1 6.60244 13.687 27.3536
1 9.58589 11.4756 7.32285
1 25.1182 21.0279 24.0636
1 15.1323 27.2837 18.8542
1 14.7899 10.2787 11.2324
1 21.2629 23.4445 23.8155
1 3.13987 15.6316 8.42058
1 5.19775 12.1146 13.2711
1 8.67074 26.6988 29.8381
1 10.7818 7.96494 16.9784
1 8.80699 29.1893 23.1188
1 10.7508 15.9037 14.3679
1 10.4769 19.2493 0.933569
1 23.6639 27.8105 17.239
1 26.7263 20.3363 28.3575
1 2.38413 9.63818 19.6954
1 25.1062 10.1218 13.0595
1 9.27029 24.1876 13.3869
1 28.3954 26.1155 3.74798
1 5.19453 5.04124 5.06971
1 14.2381 15.5062 10.7721
1 26.5229 9.05513 19.8978
1 24.7339 21.0014 1.36484
1 14.5449 0.787532 11.9903
1 19.4314 28.5947 18.6743
1 30.4041 10.456 0.8901
1 14.5399 10.0207 17.0358
1 6.49276 18.4506 5.91131
1 16.2551 18.8305 18.023
1 15.9333 20.2038 10.3343
1 5.42795 0.576425 8.2817
1 29.2671 17.4417 15.8165
1 8.56891 4.42267 13.586
1 4.12156 19.9265 10.2784
1 11.6662 6.53867 4.24041
1 0.855301 24.3921 9.01363
1 14.8808 1.91062 19.8859
1 17.5428 16.2012 10.6439
1 23.5749 8.95765 20.6476
1 12.9688 15.6486 15.0024
1 24.5354 26.21 1.63487
1 14.289 29.7112 28.0422
1 10.187 27.11 30.4334
1 17.5592 0.590869 5.66706
1 11.8481 29.7461 14.9668
1 26.7752 22.7766 13.6248
1 23.6715 26.413 20.8279
1 3.38897 11.5516 15.0838
1 21.7604 7.44018 1.77961
1 18.1593 9.36294 10.5159
1 26.1021 26.3171 20.9866
1 26.2829 23.728 21.4489
1 24.5879 25.2315 26.0616
1 19.4366 12.5162 5.04082
1 15.2675 1.28681 29.2734
1 6.34032 27.5919 11.0523
1 25.8956 4.70286 17.6458
1 2.01768 15.399 9.30325
1 10.811 8.3051 28.4169
1 13.4804 30.0275 7.79019
1 28.7132 10.7259 22.3651
1 22.2671 24.1489 4.07186
1 1.9579 2.01968 15.2698
1 30.2449 22.3832 14.3131
1 18.5799 5.6246 23.5989
1 18.7087 3.62431 13.8456
1 28.4714 11.3266 16.4406
1 20.0829 2.72682 5.112
1 17.3487 15.7419 21.7834
1 16.1318 7.35653 20.3056
1 17.254 19.3041 21.4158
1 4.54093 21.2927 24.4588
1 14.6705 3.37893 24.9237
1 12.6966 13.3989 18.1046
1 4.58384 6.27189 15.5888
1 27.5987 8.02583 8.04919
1 15.2241 16.3571 17.7204
1 4.99397 17.306 7.72186
1 9.36989 29.9177 7.00941
1 20.4819 17.3542 18.968
1 6.36606 14.9966 25.4636
1 11.3429 6.72356 14.1911
1 17.6475 13.1919 21.8209
1 3.26704 13.2521 20.7047
1 13.3371 9.46627 5.46329
1 0.425192 22.4659 5.28367
1 3.86635 6.12907 10.875
1 22.0452 1.79851 7.76408
1 3.21307 21.6096 15.7118
1 18.5386 11.8031 11.6017
1 29.6041 0.269622 4.63806
1 15.3227 23.4665 1.94738
1 3.39857 6.60956 24.5958
1 1.5238 8.84319 18.8843
1 15.1488 16.8292 4.65065
1 19.0375 23.589 19.1469
1 23.7499 30.2145 0.984932
1 1.64941 18.0283 8.66663
1 -0.129895 16.6799 13.764
1 3.30599 5.19131 1.76489
1 15.181 25.3796 27.3164
1 26.851 25.0837 21.7226
1 27.8469 2.94418 3.6545
1 17.3364 24.014 0.993005
1 18.1689 4.48436 4.87957
1 29.3871 21.208 29.3579
1 14.6847 9.1354 18.4665
1 22.899 23.806 25.9867
1 25.5018 12.484 1.59033
1 23.9766 18.6854 18.6069
1 7.76542 7.80983 26.8345
1 23.2775 6.76753 8.89494
1 14.5426 5.51377 2.02438
1 18.3438 19.8821 10.2234
1 12.2499 8.84544 14.9745
1 4.68564 22.6884 13.7736
1 12.1279 9.18084 19.9689
1 26.6389 21.0437 24.8013
1 6.09579 30.198 19.6087
1 1.9915 6.78777 30.5854
1 7.77426 12.3453 1.60456
1 25.044 16.2722 2.54076
1 29.9981 11.6775 16.107
1 22.377 4.86924 17.3798
1 6.66238 19.3509 1.29119
1 19.844 11.99 0.513279
1 27.7358 7.80215 17.866
1 20.7736 10.8878 7.49311
1 21.6743 0.289045 27.2054
1 2.4438 8.95242 28.3103
1 25.9201 21.1739 27.6037
1 8.80536 3.61156 26.062
1 13.2776 14.9738 9.92668
1 14.562 21.8164 11.0091
1 3.50421 6.70976 8.69904
1 3.99415 27.0691 10.3678
1 27.7125 19.4394 17.8947
1 29.0829 2.60641 11.4309
1 4.36351 11.2919 12.4525
1 19.9783 9.50953 3.94055
1 27.2822 23.2608 27.5919
1 16.469 4.56967 23.6984
1 18.2393 10.0611 19.8226
1 28.0769 8.83553 5.06211
1 15.7312 25.8879 29.8914
1 19.501 13.7247 2.91492
1 10.8129 18.6703 3.73817
1 6.26715 18.1291 16.6965
1 14.7718 26.7621 29.7076
1 25.0501 23.6454 24.001
1 19.8858 19.4846 15.8251
1 2.43132 21.3741 3.38951
1 10.9448 3.99243 18.9444
1 19.6529 17.2922 1.13379
1 13.2668 10.0972 0.229141
1 2.88724 10.7586 9.3932
1 26.9828 21.6743 18.3043
1 19.8264 29.8935 30.2089
1 30.4394 7.47319 29.4753
1 28.5481 29.5364 15.8536
1 29.2176 7.62931 15.8378
1 18.5386 17.4383 26.0783
1 12.0895 1.06857 4.16681
1 24.2348 17.879 29.9909
1 0.821009 15.6058 28.11
1 8.03634 10.1258 9.96842
1 16.3599 16.8589 12.442
1 8.78861 5.48301 5.56501
1 3.43655 8.60993 0.433934
1 28.8116 3.84811 10.5902
1 28.985 25.481 4.9442
1 30.4367 2.99431 12.257
1 13.7402 6.7703 8.06983
1 22.0071 8.54104 22.544
1 3.9145 16.0571 24.5358
1 0.224983 21.6564 23.6011
1 8.57311 15.7754 3.19853
1 1.49384 0.406795 2.35512
1 6.36431 28.0735 5.99554
1 1.98863 20.6932 22.1878
1 5.79558 4.20379 20.7669
1 16.1118 13.5838 5.28912
1 0.255022 28.4472 28.1447
1 14.9781 7.80236 3.07787
1 22.9284 23.7817 8.55323
1 27.4917 1.57085 17.318
1 11.7379 26.2114 24.9285
1 25.1703 23.1365 26.3665
1 28.1831 21.858 3.19001
1 16.5473 28.1112 9.76698
1 17.1196 13.0927 4.29411
1 11.3314 14.403 4.4607
1 19.0756 17.3676 4.56404
1 0.853184 17.9531 23.6898
1 14.3463 14.262 11.3371
1 23.681 13.076 21.8595
1 6.02192 18.089 12.6595
1 13.2925 13.4536 15.1965
1 12.3316 27.3047 29.2081
1 18.2531 22.5415 17.0475
1 19.0389 17.9725 9.13772
1 9.97038 13.615 15.4559
1 29.15 7.34602 17.2187
1 28.0157 10.4583 26.5992
1 4.93189 21.4936 13.5957
1 11.9373 18.2007 11.1317
1 24.5266 26.5025 6.33506
1 5.16087 29.2005 19.3948
1 27.9229 24.766 1.45021
1 12.4719 20.1345 27.4168
1 19.4201 28.7673 20.2802
1 19.845 19.0086 11.3654
1 19.3026 5.14044 5.33714
1 19.5402 5.36771 21.502
1 27.2148 18.1673 14.0345
1 24.8737 7.39015 10.2806
1 1.67623 0.929515 27.005
1 18.0154 5.74271 18.0548
1 6.58443 6.38065 20.3938
1 21.7949 21.5652 22.4942
1 24.0288 9.11659 24.7501
1 22.9415 15.4976 15.7029
1 25.4375 2.39375 14.4162
1 2.2958 14.0679 25.3358
1 8.705 26.8341 15.3166
1 12.9568 18.9958 18.9313
1 14.4285 24.7955 19.0285
1 6.05771 24.8833 16.6713
1 10.3929 16.9725 29.2096
1 2.60529 9.65885 29.5544
1 10.154 7.50592 15.9501
1 21.1863 22.0202 11.7269
1 22.9655 30.4173 23.5304
1 13.6852 7.59654 21.6968
1 28.5027 18.6304 22.0995
1 15.3844 30.3126 6.63413
1 2.00092 1.68287 4.61732
1 17.4191 2.85425 30.5588
1 21.5808 12.3541 22.5182
1 21.6982 13.5812 3.30732
1 19.0337 23.978 3.13548
1 29.6439 6.58633 22.5055
1 17.755 22.1678 26.976
1 24.3508 22.4098 16.9622
1 0.116567 3.7973 16.4115
1 4.15452 29.4667 17.2789
1 25.2967 5.31632 11.4305
1 29.8715 14.3552 18.9168
1 13.0966 16.6019 22.1222
1 28.055 7.39928 5.03963
1 3.86051 18.567 10.7035
1 15.8368 8.15536 6.87979
1 16.0123 19.2516 26.5226
1 4.44096 16.7018 17.6409
1 21.9029 10.3902 24.2342
1 12.401 4.02908 29.8677
1 3.69221 3.75317 15.4251
1 29.8026 2.05401 21.9831
1 19.9632 21.6672 28.6187
1 10.4704 24.4731 0.747545
1 19.9294 3.50087 1.43251
1 6.65013 12.2523 21.2573
1 27.7169 28.376 30.4112
1 18.4183 29.348 13.87
1 20.4823 27.5324 29.8095
1 11.2854 13.6093 13.1997
1 10.1157 21.1481 29.3035
1 8.11447 22.1281 27.3174
1 18.0141 0.413424 8.94251
1 10.3831 0.037496 18.0272
1 10.6943 4.37768 3.70912
1 5.87157 3.17242 18.2296
1 21.4691 19.7706 28.0636
1 6.90697 10.9264 18.313
1 1.07488 11.2251 24.6234
1 6.57069 23.5698 5.10465
1 9.25274 5.00114 9.66772
1 17.7807 17.6425 11.0133
1 22.9368 21.2182 20.1004
1 21.2516 9.25566 3.20325
1 13.5007 16.5251 27.6268
1 22.6265 2.32975 16.7302
1 3.99628 8.84616 24.2657
1 4.6717 4.87864 29.5458
1 0.675229 26.4642 26.3225
1 17.7038 0.348624 10.4655
1 16.8233 9.49095 29.1302
1 24.2272 3.31241 5.41518
1 9.8021 2.05628 27.9813
1 7.34043 8.34424 11.8803
1 16.4234 30.2477 13.6903
1 19.8822 17.0343 20.3297
1 3.69852 16.4037 18.6964
1 21.0931 3.29226 20.9631
1 24.0576 21.6762 26.0357
1 11.7313 6.11107 9.06673
1 4.88829 25.6276 5.82797
1 27.1716 16.711 29.3488
1 26.8605 28.3662 9.82014
1 20.2675 28.2688 4.30693
1 17.8153 21.0282 22.933
1 8.92714 9.65194 25.4838
1 16.2755 3.46954 2.45725
1 19.994 28.9656 26.758
1 29.5207 6.74932 12.6992
1 3.30459 14.9998 4.81344
1 7.41573 8.00709 24.2402
1 25.7185 3.88306 19.1797
1 5.08562 4.51171 21.8561
1 21.5567 3.20089 12.9588
1 8.9222 15.6489 20.3553
1 10.7573 19.7889 29.8724
1 3.65578 14.1651 30.1745
1 25.4638 16.856 21.2628
1 17.4952 5.1196 29.1907
1 23.6383 14.0879 8.73302
1 23.951 20.595 25.0714
1 12.773 7.00023 29.2111
1 6.3113 27.1298 24.399
1 9.63493 4.96831 25.5693
1 28.4467 11.9469 0.521939
1 4.21819 23.1517 4.60974
1 4.53258 2.26765 27.1839
1 16.9614 24.1254 5.90985
1 25.4519 4.32777 23.9168
1 22.877 14.8469 10.9993
1 23.7297 25.8504 7.41999
1 18.0468 12.8663 1.05608
1 9.85359 24.5522 20.9561
1 16.5618 0.202128 18.6964
1 12.2948 1.36934 9.28078
1 6.17 21.4456 28.6978
1 23.551 14.2383 27.4511
1 22.1503 23.2237 29.7523
1 29.3008 11.7223 4.54733
1 17.9912 27.8523 9.1505
1 9.98723 9.06953 26.223
1 11.6417 15.1449 5.94918
1 5.83032 10.8654 17.3276
1 0.832975 16.478 19.007
1 29.2627 29.6956 19.9856
1 3.33774 12.0111 10.1872
1 26.3853 9.73656 15.4648
1 3.73277 9.28706 7.83367
1 12.6563 28.4359 8.83339
1 13.062 16.7101 1.5532
1 18.8227 12.4501 22.2468
1 28.4672 10.041 17.0047
1 2.46549 4.14769 8.47634
1 6.66757 18.5496 9.30889
1 20.796 21.8357 3.28596
1 8.50299 28.5742 15.857
1 26.0203 2.1246 27.6932
1 20.111 10.2604 25.942
1 16.3945 3.693 5.93138
1 3.1811 24.6753 11.0849
1 9.5846 16.1076 14.1659
1 13.7356 24.1632 0.386284
1 14.3408 11.8209 3.56037
1 17.1682 27.4624 23.1157
1 4.25993 2.64879 25.7073
1 8.60953 6.56169 27.0563
1 13.5842 7.86506 25.8033
1 28.2332 11.6469 19.2458
1 21.5779 5.38939 6.25611
1 16.6383 3.60849 27.8806
1 -0.133766 12.0213 10.6343
1 18.9718 28.5774 24.2505
1 21.9279 1.78621 4.38125
1 23.069 25.6901 12.0214
1 8.80586 29.4555 5.77435
1 3.29645 0.684297 0.839362
1 26.0486 19.1063 18.0992
1 20.7557 14.9219 25.3279
1 8.08975 15.2442 21.5305
1 7.84299 20.6371 6.82871
1 16.8069 13.486 10.8644
1 11.5347 17.5042 4.06013
1 2.46055 12.5704 12.6465
1 27.8061 12.4605 12.3214
1 9.08148 30.2798 12.8661
1 15.6774 8.71659 20.7202
1 18.0971 29.041 20.9454
1 0.727564 11.8056 22.5664
1 15.8774 18.9615 22.9711
1 4.78168 20.3153 21.1277
1 6.88255 19.409 29.9677
1 9.86712 15.0815 17.9171
1 28.5913 13.4195 11.932
1 11.9691 16.4286 14.2636
1 21.2983 7.26912 15.0142
1 3.47762 14.9789 18.8576
1 27.1459 27.4361 28.822
1 11.9226 24.9686 9.51547
1 15.7723 13.8187 20.1656
1 17.8054 1.44423 17.1948
1 5.60081 3.45577 9.39532
1 11.5753 11.9369 3.30988
1 24.5898 28.2613 8.20091
1 20.6465 20.3548 13.4775
1 15.6772 10.65 4.96801
1 14.3013 11.5202 18.6905
1 20.0745 7.98814 12.1975
1 21.4096 29.4695 21.7967
1 19.8618 4.88335 27.0833
1 22.4622 20.221 10.1482
1 22.204 17.3885 1.07961
1 21.9315 3.76876 3.00867
1 28.9738 1.44528 10.8263
1 2.48313 13.3219 1.88862
1 29.3918 28.1457 21.1719
1 30.4841 12.7366 30.236
1 13.0734 29.8293 14.1439
1 11.9689 23.7613 2.93941
1 28.3642 28.5017 24.0078
1 18.8208 9.92825 28.1841
1 16.6737 15.4873 3.39328
1 16.9768 23.0283 17.7161
1 7.74677 24.2718 21.7404
1 29.6224 27.1443 14.8088
1 1.46886 5.41935 16.8171
1 7.01737 29.6801 29.5381
1 12.4857 14.2575 12.5867
1 20.8712 21.4248 21.3213
1 7.65011 0.0235276 5.12807
1 20.9042 16.9362 15.5689
1 10.8709 4.82119 20.2482
1 9.0378 5.53454 22.9122
1 23.4868 16.2209 28.2811
1 25.2433 29.3784 8.92522
1 19.7232 5.72361 24.4783
1 22.2678 10.5241 28.5052
1 17.8231 29.9801 26.1314
1 20.2794 29.8235 19.7709
1 11.4505 1.15936 15.5203
1 1.15902 5.38652 28.589
1 23.7125 18.274 22.3862
1 8.36851 18.1542 14.5966
1 26.0553 22.5927 27.2922
1 22.1214 25.434 22.5637
1 22.9366 10.2053 29.6364
1 4.83359 25.8943 22.3068
1 2.38657 12.1809 19.8201
1 7.61928 15.9983 11.7327
1 29.2437 13.1225 7.23328
1 18.2629 28.1104 22.6519
1 16.3945 3.26334 12.6794
1 10.1464 20.9194 4.27404
1 24.8393 21.1317 11.9745
1 15.6687 1.44101 22.1507
1 25.2159 8.95931 17.4461
1 27.8599 19.9838 22.7858
1 12.2919 20.7599 23.2824
1 23.7733 22.5243 3.07217
1 15.9504 22.6674 22.2593
1 27.0207 16.2279 30.5687
1 25.3855 26.4721 15.3065
1 8.62057 21.2635 29.6353
1 27.252 4.78312 0.227808
1 25.7178 13.6038 2.3574
1 18.2429 2.13239 21.6891
1 30.1975 12.9394 15.2578
1 5.39417 19.5362 6.17556
1 3.64519 25.8069 22.9492
1 2.82416 23.2579 6.72863
1 6.60625 11.7458 2.37926
1 27.3462 12.3727 27.9818
1 4.09146 14.5959 13.9052
1 6.29488 28.0198 2.73862
1 24.3224 28.8501 0.800684
1 21.591 13.848 5.46184
1 9.98108 26.7328 2.76552
1 12.7168 25.926 5.9613
1 3.74206 26.4056 19.5716
1 26.8668 8.7678 1.6458
1 14.151 17.5335 30.0484
1 10.3032 21.6257 9.80125
1 15.8464 28.5269 16.4058
1 10.1395 26.9223 9.21607
1 1.75316 6.45628 17.8349
1 0.479684 28.2684 23.3156
1 2.79995 17.8716 28.1181
1 13.5499 17.8298 19.6562
1 28.989 3.32436 1.206
1 26.6334 24.1927 17.1929
1 24.4711 1.2321 29.2512
1 29.4248 2.33759 18.6434
1 6.90028 21.8951 20.2821
1 17.6232 28.8727 7.25848
1 28.0731 18.9065 7.44923
1 19.0913 10.6621 6.54789
1 3.06938 14.6152 20.1174
1 28.8493 29.6298 14.4368
1 10.0511 4.95495 5.9425
1 6.98909 17.5522 2.9468
1 17.0054 27.3316 19.6271
1 11.1462 20.4041 26.8243
1 16.6557 7.29476 23.5768
1 10.9188 10.1286 16.6283
1 10.1362 15.2817 6.60893
1 17.1477 20.9438 18.7475
1 0.219207 3.51362 3.88832
1 16.8445 6.27031 3.48213
1 15.2667 14.9077 27.6411
1 26.9755 23.1182 16.2376
1 3.47751 7.97396 28.0524
1 19.6341 29.9701 8.13102
1 29.7899 8.24012 28.5289
1 14.5881 19.0561 16.2008
1 8.95562 7.38431 3.9333
1 29.0946 14.416 26.8973
1 0.8747 19.792 0.807869
1 28.7619 15.5514 24.5284
1 9.81138 28.7842 19.5821
1 20.5149 25.6006 4.48545
1 19.6529 18.4736 3.6286
1 18.8561 19.2247 20.3137
1 8.82941 0.299688 23.9885
1 8.78807 21.5802 13.2093
1 27.7066 15.9907 16.6909
1 23.2175 15.5845 27.0208
1 0.670639 25.1875 17.5837
1 21.989 28.3938 10.9556
1 13.7692 14.1264 24.547
1 17.104 28.7127 19.877
1 22.079 3.93585 9.07643
1 15.0489 26.752 11.2946
1 8.0724 26.4049 6.43806
1 21.4402 7.55166 23.4514
1 4.31741 18.6227 2.07096
1 18.0702 8.66941 17.803
1 21.8269 3.19931 7.63048
1 8.24365 25.9661 1.64325
1 19.977 25.7742 15.4731
1 25.4105 10.6217 10.4311
1 23.5539 2.86043 24.741
1 11.7138 10.8036 5.95133
1 1.88262 6.79059 4.18116
1 25.2855 3.99273 26.0718
1 8.21255 12.4442 12.7425
1 4.59028 3.13458 15.984
1 23.6561 8.01815 0.140656
1 17.8617 27.2598 16.533
1 3.11662 9.2138 14.4027
1 16.0741 12.5605 6.37613
1 3.25398 21.2699 22.4238
1 21.4507 8.96252 21.1964
1 26.3804 2.53986 30.015
1 12.2473 29.5425 12.0956
1 9.61414 6.54197 5.15308
1 26.684 26.9175 10.0883
1 19.3235 2.64927 6.52125
1 18.9359 13.5832 4.31212
1 9.88212 28.6353 11.2366
1 17.3024 22.8137 12.0885
1 9.46362 9.81969 5.424
1 19.6787 6.91342 24.9828
1 10.214 4.12079 24.7717
1 17.598 26.4988 8.18987
1 16.057 7.05487 11.0053
1 7.25895 7.29363 9.78503
1 7.94017 1.46334 29.4307
1 22.1542 29.3498 11.8253
1 25.0121 24.2161 14.9307
1 9.19133 10.186 2.91042
1 7.95882 26.0242 5.1652
1 10.8591 15.862 29.8383
1 7.37819 28.9115 27.0822
1 20.2291 24.1365 21.6743
1 1.33398 7.78883 11.1682
1 6.6386 7.95766 10.8249
1 21.8648 22.9686 28.5002
1 16.7165 17.5725 1.1416
1 1.88091 7.24015 25.7234
1 30.6231 23.6788 13.7646
1 6.13146 14.6546 9.42988
1 14.6855 5.9783 27.933
1 23.8664 11.4937 25.2961
1 1.84566 7.23381 22.405
1 26.4914 27.5354 25.2724
1 5.80818 6.09915 19.4036
1 27.1331 21.4879 4.38211
1 1.02102 25.0347 3.82883
1 22.0936 6.19289 15.1119
1 23.8352 7.90205 9.03565
1 19.7925 10.2377 16.5737
1 22.9398 18.0553 5.15557
1 4.83542 23.6253 25.51
1 26.4568 27.9808 1.15077
1 16.254 8.72046 3.51031
1 16.7551 0.94825 28.6243
1 12.1891 2.39802 12.1971
1 5.84441 16.2585 7.74934
1 1.73318 15.9469 23.4625
1 22.1579 28.0345 13.5528
1 15.9226 24.0762 16.0865
1 8.38487 28.7886 29.6878
1 3.50871 2.92209 28.076
1 12.353 20.0487 19.5056
1 8.69066 4.30944 22.7597
1 7.95172 18.9382 25.5198
1 9.81133 3.06815 7.93655
1 20.6591 4.28863 22.1694
1 23.9015 25.4534 0.649318
1 22.9115 14.9571 18.9664
1 12.5132 6.45571 24.1125
1 7.18619 2.05031 16.8905
1 9.48974 18.9191 29.5469
1 10.1563 8.43941 3.49533
1 20.6961 28.7484 29.127
1 16.0293 3.4989 4.59294
1 11.5868 26.8473 17.3234
1 27.2455 26.8969 26.3528
1 23.79 20.6062 30.5284
1 2.2736 29.3911 2.36377
1 17.3609 14.0068 9.50627
1 17.8813 29.0156 28.4727
1 14.564 2.06764 15.7685
1 23.9518 9.69919 27.2552
1 8.51715 6.02091 11.6672
1 22.7018 28.9172 3.96366
1 28.4143 8.35851 13.9244
1 15.9965 16.1427 19.3667
1 10.2025 3.89973 15.4913
1 20.5851 29.385 2.16812
1 21.3912 4.06323 25.1714
1 18.3896 1.66864 11.6247
1 25.305 1.50485 9.10922
1 14.5255 24.3516 15.5846
1 20.9717 11.8012 27.6647
1 26.3204 7.36728 22.343
1 17.3813 17.9179 2.36214
1 28.329 14.2842 28.1196
1 17.5056 15.4177 27.6765
1 3.1821 20.5355 7.04497
1 12.6076 9.94378 9.44017
1 7.19023 12.1806 18.6347
1 28.9051 7.62808 1.52251
1 20.9727 9.50324 25.1454
1 2.76369 10.3044 22.6168
1 9.20923 8.12462 14.9882
1 0.743242 10.0582 21.1125
1 5.04152 9.32237 26.4768
1 23.9631 15.8014 23.4626
1 5.21898 14.8603 7.48214
1 10.4064 11.453 11.391
1 28.8115 11.0522 24.7214
1 7.44884 1.42002 6.04771
1 19.5806 22.8671 7.71966
1 1.33484 12.8991 7.14553
1 8.55252 13.9407 17.2172
1 27.5558 6.81261 29.1669
1 1.37906 3.16417 16.6121
1 5.6246 9.92336 14.9766
1 16.4751 5.95583 14.7804
1 24.3254 18.9344 25.662
1 20.8374 1.7695 30.1529
1 25.1287 18.7767 11.5144
1 24.8717 18.885 2.12002
1 19.1687 25.9622 20.0521
1 25.2618 3.56251 30.0342
1 2.22842 7.55148 20.9354
1 17.3602 10.2636 17.6717
1 15.509 10.3711 7.49604
1 27.1138 8.82329 11.4137
1 8.20631 22.3771 0.31356
1 6.00542 14.2634 15.9669
1 15.5149 12.7133 17.0888
1 12.1056 4.32962 13.9038
1 14.1697 27.3043 5.13579
1 27.0406 3.41395 19.2715
1 29.7313 4.00312 6.19992
1 21.9246 11.7739 14.8909
1 16.4856 9.47869 24.3575
1 22.3714 4.32878 24.2586
1 30.6013 18.4299 1.16947
1 18.017 8.66225 15.2299
1 24.7419 14.2326 18.5781
1 22.1227 19.283 5.21678
1 14.1391 28.5689 14.3146
1 1.28882 25.7535 2.59472
1 15.5531 1.75342 6.9033
1 7.37226 15.9682 28.7126
1 20.7284 29.4553 3.63846
1 1.06316 6.19949 5.12516
1 23.6018 8.55643 19.2369
1 11.2098 29.9141 27.6325
1 27.6988 24.7428 27.2116
1 9.21682 1.55657 29.9746
1 7.47838 30.4735 19.6338
1 4.67686 29.441 25.4739
1 23.2533 10.2199 24.2657
1 25.2663 7.13558 7.00432
1 3.55097 22.5035 5.70409
1 13.2657 20.5253 21.1966
1 1.9172 1.68853 1.48099
1 30.1974 3.85028 23.9396
1 10.1745 13.7211 2.43858
1 6.38411 5.82343 23.2822
1 29.9666 27.8285 4.42361
1 8.49468 2.53869 2.1875
1 15.5794 18.196 5.01055
1 26.2662 7.52532 8.32219
1 9.47334 23.8144 12.2015
1 28.8636 27.6802 3.219
1 27.8218 10.7468 1.33284
1 0.441077 18.1108 19.5972
1 12.0607 26.4997 19.8003
1 23.1357 5.92874 16.6082
1 0.152166 19.3412 23.4111
1 12.4583 24.5092 8.17051
1 18.6989 15.2302 28.4131
1 4.77844 14.8431 3.36013
1 8.87291 18.4439 2.12808
1 18.6317 4.30117 0.917486
1 23.7091 19.1566 21.022
1 11.4323 14.3849 1.9462
1 11.0093 10.6673 27.1315
1 2.72396 30.1694 6.11709
1 21.5921 9.05667 26.4714
1 30.8168 13.8687 24.1168
1 0.561759 5.50347 27.1893
1 23.6617 10.0267 6.91612
1 6.0017 24.3733 6.07528
1 4.47269 16.6355 26.0769
1 16.6488 30.2688 26.4588
1 23.3248 1.03485 30.1927
1 5.36917 29.4047 21.7103
1 17.5037 11.9316 10.5335
1 26.7606 27.4319 18.7873
1 12.4717 16.363 5.90578
1 22.1766 2.33095 3.05071
1 22.8821 22.9386 4.03679
1 19.2982 10.6512 18.8768
1 1.49839 8.58759 27.3644
1 25.0219 11.4276 26.0095
1 12.4982 26.3973 2.18643
1 6.54563 22.5323 16.0803
1 20.1194 15.7803 15.8992
1 25.4807 17.5201 1.8789
1 6.0204 15.2854 2.64774
1 2.80326 6.90755 7.40487
1 4.86614 5.0903 19.8751
1 4.88929 27.1273 17.6848
1 10.1557 6.79573 21.3783
1 5.65111 19.2887 8.70254
1 9.9568 12.7638 7.60222
1 18.1775 1.77417 18.5569
1 1.53787 27.8837 9.09553
1 13.5743 5.55465 5.31512
1 9.82286 14.6538 4.29199
1 20.2288 21.4838 7.67674
1 12.3566 20.5558 10.5589
1 16.0645 11.0645 21.8713
1 26.5069 18.0866 9.46256
1 1.90619 30.2795 9.95147
1 13.4011 17.6112 25.2579
1 2.53916 10.5067 28.1658
1 8.29318 30.5457 20.9442
1 11.2713 13.0648 7.99004
1 17.4047 5.04053 11.1636
1 22.9292 18.9746 14.7177
1 15.5672 11.348 11.7206
1 30.0185 8.61056 23.1763
1 8.179 2.1891 23.9985
1 28.1795 21.1543 26.66
1 8.84931 3.80513 10.7029
1 29.105 13.2933 22.548
1 23.8786 28.1217 2.12256
1 3.95815 27.0346 28.5612
1 19.5263 3.96139 29.2387
1 4.15481 24.7872 14.5464
1 14.5066 7.65944 10.6191
1 1.95634 14.9983 22.3645
1 21.5454 2.82841 5.18466
1 24.1093 23.7675 0.714928
1 27.7976 28.3597 15.825
1 2.31787 18.1326 10.8176
1 13.1189 20.2687 30.5293
1 17.5525 1.87321 14.9765
1 16.0916 18.2254 11.9745
1 0.165969 10.3849 28.412
1 25.069 1.76007 26.8554
1 13.5944 16.6437 12.8142
1 0.803744 23.4699 1.98864
1 9.51271 4.36955 8.28526
1 26.5126 29.154 11.0501
1 4.85987 11.4156 14.7146
1 12.7511 22.7578 9.768
1 16.1558 16.6254 26.0551
1 3.65765 23.8508 24.6776
1 24.5984 8.87496 26.2855
1 21.8374 15.5535 26.2383
1 15.8429 7.86383 16.5363
1 29.3412 7.73618 9.67616
1 26.9364 23.4669 20.1234
1 26.465 16.5055 5.51373
1 1.6485 5.0805 6.04709
1 22.3262 25.8899 0.640934
1 18.5375 13.1785 29.0781
1 27.154 18.5445 0.262113
1 26.9681 9.52695 5.80481
1 29.3754 14.3932 6.80618
1 12.1182 12.8567 26.6702
1 0.414229 29.5368 24.4569
1 9.02248 6.31937 0.108114
1 5.45629 17.554 3.65419
1 11.5004 18.656 24.4609
1 26.5907 5.92632 17.7098
1 26.5003 15.7544 21.425
1 28.6078 4.73817 28.4789
1 15.5928 4.54067 17.6636
1 11.9064 8.46216 27.3191
1 15.9463 15.7017 4.69969
1 3.62095 18.7607 22.5379
1 20.8364 16.0374 18.3957
1 20.7069 2.63162 18.1198
1 25.798 8.46277 23.0616
1 26.1039 7.31511 1.35534
1 2.83143 4.12146 14.4817
1 18.3314 26.3679 3.2836
1 28.1736 17.5086 28.8647
1 4.81228 14.0063 22.2242
1 13.4345 29.3017 18.8903
1 26.4578 17.6092 19.9767
1 4.39395 24.3433 7.62804
1 23.7653 1.0704 4.43934
1 3.88417 26.2384 25.4761
1 26.8654 26.5474 13.0516
1 22.5034 25.1904 13.1895
1 2.35738 24.6614 4.82629
1 15.7463 9.41364 13.8335
1 25.9812 17.8081 22.3995
1 19.8936 20.414 8.52211
1 6.49978 19.4715 16.1632
1 29.5616 20.3168 21.0103
1 20.8278 30.1475 1.02331
1 21.0295 27.768 24.3328
1 19.169 24.8281 16.2602
1 14.1179 8.03358 23.6918
1 8.12821 10.2593 0.595245
1 29.4964 18.412 2.06421
1 9.82956 4.47435 12.7677
1 25.9433 0.843987 11.8151
1 8.95293 18.5839 8.40728
1 13.2255 24.3509 26.3146
1 0.78752 6.59411 26.4651
1 26.267 13.5247 20.4164
1 15.8465 19.0709 30.2568
1 4.58687 15.7008 16.6815
1 9.23874 15.8959 5.32332
1 11.1076 29.9608 26.12
1 28.214 25.5957 -0.0957175
1 24.9374 3.68549 7.90963
1 8.48892 26.4712 2.87965
1 3.17381 26.8309 11.365
1 28.4044 30.2654 19.0592
1 8.59397 14.4628 15.7639
1 22.9186 19.6523 30.1493
1 29.0934 21.5702 7.17434
1 28.8393 8.54783 0.545623
1 6.98695 26.4262 21.0545
1 5.77591 6.66008 15.0538
1 9.11268 25.7764 23.9112
1 27.7634 13.4594 22.189
1 10.3652 12.2876 15.5346
1 22.7942 17.2385 17.1769
1 13.0648 26.8963 27.6796
1 13.4785 19.3606 1.11572
1 21.7715 5.78448 12.5427
1 6.41624 14.1537 20.0885
1 9.94795 29.4345 29.9741
1 13.101 12.4083 10.0926
1 26.4174 4.04198 8.02058
1 15.5754 28.5247 8.56321
1 7.81317 9.60053 2.92543
1 7.79586 16.9767 15.3717
1 17.7113 7.39967 26.1321
1 16.7402 22.2421 19.144
1 18.8102 27.5387 25.1662
1 28.9887 13.2205 25.9199
1 21.7953 18.396 17.3315
1 7.00502 9.89426 27.641
1 4.98275 5.00379 7.07537
1 3.28761 19.6748 0.257319
1 8.64305 6.46579 10.3333
1 7.89474 10.4224 17.1557
1 18.1327 11.1958 28.0824
1 3.03544 2.67967 22.0175
1 1.06672 21.4138 14.0214
1 15.7448 1.22577 11.2753
1 17.5156 26.1865 23.4491
1 6.10901 22.9696 23.0325
1 3.42514 23.8653 1.46788
1 17.0934 8.56669 23.0286
1 17.3729 10.8121 21.7633
1 27.2735 0.160694 1.30839
1 24.7621 4.72478 27.9954
1 24.1685 13.3503 30.1348
1 24.4994 29.9515 18.1325
1 16.457 12.7175 0.867639
1 10.6307 10.5118 8.25551
1 25.782 8.05493 28.2001
1 14.6519 20.4638 21.1691
1 11.73 1.52628 29.4267
1 7.86405 3.18318 15.8816
1 15.8304 26.7065 3.24732
1 20.7972 18.6135 7.38014
1 9.77554 16.826 22.6092
1 29.2556 13.7816 1.95714
1 14.3444 19.8759 8.07773
1 29.2301 7.16291 4.69471
1 26.2058 30.187 6.84067
1 26.0266 4.69806 4.30433
1 24.0244 29.0565 26.3294
1 30.1457 16.0399 0.75594
1 3.00834 28.7322 16.2465
1 3.69704 12.4218 4.37924
1 12.8264 14.0334 22.2632
1 30.5134 9.32008 4.96174
1 6.72122 2.80835 11.6762
1 3.82601 22.1287 3.55342
1 3.4119 7.08773 6.18439
1 14.6004 10.7425 0.577764
1 25.7804 14.2565 26.6943
1 12.8956 9.65466 27.7142
1 4.79137 6.26006 29.4317
1 23.1461 2.96464 19.1087
1 12.1532 0.732406 0.162253
1 1.32931 3.22353 7.72691
1 22.5777 17.446 24.1927
1 18.9222 26.6902 18.3634
1 16.3082 3.69357 16.3132
1 0.391974 26.9183 27.6223
1 28.2753 3.61479 20.2244
1 16.4937 26.2044 13.3594
1 14.1556 26.093 10.3218
1 29.2368 23.099 6.80419
1 20.0011 27.852 27.8706
1 3.5909 19.2555 7.43234
1 27.4325 24.8203 23.2236
1 5.18439 24.8554 13.5364
1 27.8324 19.3446 13.4958
1 3.21937 8.9943 4.2261
1 2.8327 3.64569 12.0042
1 8.17506 27.7076 29.006
1 8.93138 19.7548 1.20639
1 13.061 12.5487 2.9923
1 25.9085 1.52163 22.8984
1 14.7974 5.72609 4.712
1 3.94523 1.87156 0.0891968
1 11.6889 29.1289 9.67461
1 7.46569 28.9722 16.8574
1 7.4484 18.7862 23.9576
1 14.0176 0.220595 18.2619
1 14.3273 3.2185 6.45329
1 4.45356 21.4949 21.8948
1 15.5515 1.70067 8.23202
1 8.69342 6.37671 2.53104
1 16.1929 12.0148 10.748
1 21.0606 29.8826 25.0552
1 25.3454 27.7293 6.98462
1 19.6017 15.3408 9.47442
1 20.2039 2.41012 13.2168
1 3.13558 24.2802 27.3756
1 6.19489 23.6588 28.5289
1 5.32178 25.0014 30.2976
1 4.82578 20.3014 25.5516
1 23.8402 3.02601 13.6327
1 13.8284 16.6043 3.84555
1 29.2174 24.557 19.388
1 17.765 20.5917 1.57851
1 15.2147 11.4318 24.2704
1 27.6549 5.11033 21.0808
1 17.8314 8.74923 19.3199
1 28.4503 23.2788 15.8767
1 19.471 11.3526 21.5007
1 17.7229 23.2979 19.669
1 16.5258 14.7991 28.3415
1 21.515 21.4126 25.3424
1 29.7241 16.0731 2.14201
1 25.4045 28.2533 0.0752667
1 27.7723 23.1 28.9635
1 24.0676 11.7775 3.80256
1 22.9981 21.1959 22.1798
1 28.7892 10.35 19.9206
1 18.0503 0.476546 4.36446
1 1.43292 3.81781 26.6297
1 29.6702 5.37856 24.1242
1 1.53651 6.88369 7.97095
1 28.499 0.0592774 20.9364
1 24.6434 1.8537 3.72747
1 5.46672 26.6891 3.04329
1 18.4699 24.3916 5.50207
1 8.27941 18.348 23.1201
1 9.90476 18.5214 16.7787
1 27.0639 5.98973 26.3873
1 14.0621 5.03865 22.8185
1 7.94767 17.8881 28.0829
1 20.3323 7.38066 4.77842
1 14.3789 0.873998 25.2767
1 8.39767 23.5891 2.16118
1 8.35636 19.8585 30.1803
1 23.9221 1.58443 6.94848
1 17.4383 8.83445 5.82615
1 27.6253 4.6243 10.1853
1 23.445 27.4506 14.0113
1 23.3161 6.57868 21.3783
1 5.59576 9.98175 30.0754
1 13.9841 28.0315 18.2692
1 10.3109 26.2189 28.3317
1 4.78056 8.58997 27.7073
1 8.06352 7.17361 7.10909
1 5.36985 22.2041 7.32111
1 5.08299 22.4466 18.1097
1 12.8888 7.62452 18.3873
1 19.4607 16.4884 8.46745
1 24.862 9.37862 4.15559
1 30.4248 2.62121 8.79062
1 17.9447 3.88473 16.3305
1 28.7092 25.9784 19.049
1 3.4981 14.6618 25.2297
1 3.74221 18.504 0.597295
1 9.98526 7.43987 6.3055
1 9.55523 10.2422 13.9358
1 4.12124 7.08121 3.16117
1 1.68461 30.2996 29.3085
1 6.59767 25.4538 10.637
1 25.8714 15.2753 18.849
1 24.0969 7.30939 26.157
1 21.8657 27.3383 0.515634
1 2.04289 20.0372 3.98696
1 19.114 22.8641 14.8104
1 10.7776 26.0892 25.7323
1 21.9007 13.8768 19.4305
1 18.9287 12.6653 12.7149
1 3.87619 3.97458 25.759
1 16.9674 10.1912 19.1949
1 13.5191 30.133 29.0647
1 8.47986 20.1231 12.9462
1 18.136 18.6812 19.0959
1 28.2667 15.0042 15.6929
1 16.5653 16.0087 1.03064
1 8.8596 2.03324 18.474
1 11.5319 14.9212 19.6347
1 10.6246 0.737378 20.7048
1 3.8242 26.1447 9.38756
1 24.2617 24.3904 23.011
1 10.7949 29.3778 17.1837
1 27.5791 28.8955 12.221
1 29.9138 16.893 6.61302
1 1.58335 0.0924122 24.5264
1 2.90339 1.0674 21.9219
1 18.2372 21.8369 20.5517
1 10.3376 27.8418 18.7648
1 6.54128 12.6572 5.12415
1 11.3119 4.22379 21.3809
1 11.459 23.0296 22.4674
1 20.8632 17.2611 6.51377
1 9.78637 9.30326 20.157
1 9.29065 23.7877 28.8718
1 0.0560992 25.6651 0.499223
1 16.8658 26.9523 5.6103