4096
Atoms. Timestep: 1060
1 17.6004 5.42701 3.17525
1 21.1872 25.7235 21.1889
1 7.07208 13.6938 2.78459
1 21.643 3.90517 24.2214
1 0.991813 22.3027 7.33591
1 9.03364 14.8155 24.3525
1 19.2347 27.3077 5.04036
1 24.0756 0.671979 10.1139
1 13.2449 29.6938 4.91678
1 21.9152 19.0741 0.234787
1 21.5592 14.5591 22.2452
1 25.2562 26.7804 14.9861
1 8.51759 28.9605 16.8197
1 15.568 29.5825 3.45638
1 21.4271 21.5929 16.8561
1 5.7588 1.13241 26.7303
1 1.14318 25.476 15.5008
1 12.9167 14.8383 26.5682
1 7.23568 15.3023 5.51382
1 4.67185 1.5307 15.4817
1 9.49454 26.9238 11.4153
1 9.52762 27.2922 14.1113
1 16.6303 12.8788 15.3412
1 3.93121 21.5564 25.6313
1 14.7623 7.96785 10.9841
1 22.1192 14.7048 16.514
1 16.3712 29.4323 6.60604
1 7.32992 3.36132 11.2225
1 20.4099 11.8532 29.7026
1 3.56016 1.39091 18.9603
1 7.56163 20.0264 16.5932
1 27.0504 16.8896 26.295
1 16.3495 22.4869 10.2829
1 10.0472 12.3501 15.2373
1 4.86295 20.036 11.5526
1 3.02484 27.7245 13.548
1 24.1615 7.9492 12.816
1 15.3181 23.6561 28.7789
1 3.55309 13.9132 4.02249
1 28.3964 7.32611 15.7382
1 18.061 5.83985 15.3947
1 1.25154 14.0336 2.67247
1 6.31976 16.3986 13.2937
1 16.9416 14.3492 15.8856
1 20.268 2.97442 21.6395
1 16.6586 28.0654 22.4023
1 17.4665 2.30157 23.1933
1 9.02355 11.8522 23.3692
1 8.37244 29.3943 14.2044
1 12.4385 30.1053 16.5327
1 11.6846 2.05039 5.23751
1 17.0596 25.7796 17.1441
1 7.35521 21.6269 15.2553
1 16.8135 9.62423 11.5402
1 10.0821 26.3007 22.4754
1 20.2054 5.35895 16.6246
1 2.77606 5.01078 17.395
1 10.283 29.2954 29.1963
1 1.44211 28.5323 2.79041
1 1.20008 16.3399 20.5222
1 1.2504 5.67637 17.0125
1 7.94347 22.9677 7.76762
1 20.3594 14.4575 8.08161
1 5.51195 16.2661 0.18939
1 4.07186 29.8362 10.5492
1 22.3564 26.5275 14.8123
1 17.6716 21.9978 2.11408
1 22.5596 18.5448 12.2253
1 4.44129 2.38907 20.8759
1 22.19 4.89471 9.07992
1 9.013 26.504 28.3237
1 21.1754 25.4665 5.16149
1 0.38115 5.44473 0.554457
1 10.1433 29.1507 12.6085
1 25.2269 5.93175 12.1732
1 28.0627 26.0512 29.9586
1 2.82551 28.0724 4.80313
1 28.5586 29.2914 27.2684
1 4.84911 8.73379 25.2775
1 13.3333 2.48527 21.8792
1 20.5632 0.701105 4.58738
1 15.8395 14.7015 25.1332
1 16.7621 1.72131 15.5412
1 27.7185 23.3409 27.0523
1 23.4248 3.74503 2.51697
1 3.7754 23.7463 8.87207
1 24.2929 8.89605 1.88416
1 29.4593 4.48537 27.4515
1 16.256 2.48797 24.0689
1 1.6436 9.37636 13.9678
1 20.0336 27.1299 13.7971
1 9.25413 8.28733 6.70943
1 20.5947 21.5635 26.5432
1 29.8665 14.8713 10.4688
1 27.0723 24.9781 30.1627
1 21.4751 23.7453 9.26395
1 22.6812 18.0228 8.69212
1 7.65983 5.99505 0.162188
1 29.987 3.01025 18.9284
1 5.7273 15.7384 27.6276
1 10.1711 16.4085 10.0756
1 23.3543 24.2295 21.1653
1 17.613 28.497 21.3119
1 12.9678 8.62268 9.36165
1 18.882 20.9356 20.9878
1 29.353 20.7134 4.19206
1 4.057 4.73146 11.7534
1 9.38775 28.0995 26.5334
1 6.55476 6.04333 13.6878
1 10.8902 26.947 21.4487
1 13.4156 16.6213 14.7471
1 10.8383 22.3243 29.2476
1 26.3873 0.356261 15.7593
1 19.9084 22.9364 5.84115
1 1.40863 12.6806 15.527
1 23.6538 9.59051 12.2295
1 7.37009 28.0951 13.8644
1 29.5152 27.2617 28.0192
1 6.01634 29.5851 28.1777
1 18.5063 10.5428 9.98849
1 26.956 5.65451 19.9055
1 26.0574 21.8213 0.478168
1 14.052 26.9681 8.00636
1 19.5169 1.49454 14.0742
1 8.32757 10.5885 23.4255
1 13.5329 6.82703 16.509
1 27.4292 17.6522 2.37491
1 16.3232 16.288 21.2166
1 12.8193 17.7545 12.2413
1 28.4965 28.5404 13.9572
1 28.2126 17.9838 16.2665
1 13.5369 10.4912 11.1903
1 6.97093 19.3563 13.9247
1 8.37747 7.04118 7.03153
1 1.72382 25.5655 9.78176
1 17.4833 1.84438 21.6557
1 15.689 13.143 9.19112
1 21.7082 10.4137 18.612
1 9.80166 20.0237 23.0188
1 27.0733 24.6475 5.06457
1 18.047 0.543088 23.9477
1 6.7252 25.0903 29.8088
1 18.1502 28.7929 2.27319
1 14.3276 0.940237 12.5812
1 28.1121 25.0702 14.3552
1 24.5709 24.8012 16.6727
1 0.542328 10.4189 11.2966
1 28.1522 4.78888 7.11691
1 17.441 8.11869 9.59161
1 20.9308 24.8329 14.1536
1 29.9113 24.7114 26.0831
1 19.963 24.03 25.5338
1 18.3616 14.5763 6.07063
1 14.9389 25.42 0.755955
1 5.13548 22.0677 10.8608
1 25.4968 2.16723 14.8842
1 4.06251 17.6459 11.879
1 16.4811 5.95557 25.9492
1 17.6073 24.5274 5.49669
1 30.0177 13.772 24.0832
1 23.036 24.9739 3.39478
1 2.22072 0.602221 9.92647
1 1.61459 21.2861 13.7992
1 17.2201 6.60756 29.1038
1 21.1581 30.1639 8.90558
1 1.13578 7.08678 15.091
1 21.8539 0.98166 1.57773
1 20.8132 16.1413 26.1412
1 20.1638 8.13511 18.1979
1 15.982 13.0139 22.3649
1 1.60702 20.832 25.2616
1 15.8001 4.52691 25.5913
1 12.7785 17.8816 18.1202
1 26.5391 6.97264 18.8474
1 25.6113 9.15286 9.84752
1 21.7608 13.4327 20.9405
1 0.897443 17.5825 6.66207
1 9.68217 29.7493 9.15069
1 24.5535 19.8084 19.8044
1 2.67411 11.8737 2.59507
1 12.6901 8.0611 13.9679
1 13.7778 10.7268 20.0413
1 2.2473 15.1486 22.9233
1 10.1688 6.33345 4.09213
1 1.78801 21.3859 6.72949
1 1.03654 1.36424 10.1517
1 22.0516 1.01299 8.60118
1 3.38237 19.73 16.2969
1 15.0801 7.10405 14.6883
1 22.8318 5.15669 5.95239
1 16.3153 16.7634 4.93852
1 29.9525 7.38059 29.6346
1 28.0153 9.1992 17.6161
1 11.8894 17.0274 8.29531
1 14.9056 26.9829 24.2102
1 24.8552 2.61649 6.51755
1 2.62865 19.7137 9.61087
1 28.2231 16.4652 16.104
1 2.99366 3.01627 2.42294
1 9.64828 26.903 29.3812
1 2.49871 29.295 28.6722
1 29.8995 0.886093 9.791
1 19.6211 21.3132 3.77781
1 16.7056 5.64697 8.48763
1 2.99214 18.2551 28.2962
1 15.6915 28.0992 14.4938
1 20.1647 18.5019 26.9533
1 29.1439 19.7699 26.9917
1 21.017 21.2898 23.7624
1 4.17881 7.30973 25.0132
1 20.4572 2.65346 9.122
1 9.0376 8.90185 28.9132
1 18.4156 23.8575 9.13058
1 15.6461 6.23378 12.9406
1 4.41499 21.9416 15.3815
1 7.6239 9.50538 18.6888
1 25.1684 19.4205 24.3839
1 10.0327 2.30068 18.1328
1 6.66859 10.2403 27.5005
1 13.9031 12.206 27.4422
1 24.62 16.3156 2.36831
1 1.05676 8.52182 14.9804
1 23.2431 4.97529 17.5797
1 0.438261 15.179 28.0981
1 22.5949 14.2524 2.20753
1 28.5314 10.3366 19.6251
1 17.0074 14.5996 5.76189
1 27.3758 2.82083 27.9333
1 27.9685 13.5228 29.2523
1 23.9903 24.6816 27.6176
1 6.45462 7.17945 25.2507
1 16.8107 12.6232 11.6956
1 7.84619 20.3499 15.0778
1 2.44582 8.01593 9.68019
1 5.96991 1.98448 13.8205
1 27.9976 21.7904 17.1171
1 27.3535 30.2891 8.14793
1 3.30116 10.5787 12.3395
1 20.975 9.47167 4.61344
1 0.716085 19.2374 30.2003
1 17.855 2.72087 25.6631
1 20.4765 11.8482 24.1986
1 25.9498 12.2899 4.57055
1 14.1254 20.7129 29.5396
1 20.3728 14.5803 2.63766
1 5.38422 17.4017 3.2143
1 9.43127 17.043 13.8338
1 15.4728 27.0206 30.1327
1 25.0161 26.9673 25.8022
1 19.1779 20.0742 18.0613
1 28.9278 17.9862 28.7409
1 6.18201 6.13092 16.8684
1 17.1922 17.2001 2.15615
1 10.5771 10.1384 0.678752
1 3.10962 10.4929 8.90243
1 0.20505 26.214 17.9562
1 22.8083 0.320625 2.21251
1 1.32651 10.2619 25.3413
1 25.0239 30.1806 13.8837
1 26.0748 3.39372 14.728
1 11.2765 11.2249 23.3853
1 11.396 1.36648 1.3459
1 23.1282 16.4445 28.0524
1 26.0796 18.7257 24.8438
1 7.36218 13.3759 11.9406
1 11.0021 15.5946 18.2982
1 14.5248 6.50738 27.4915
1 6.76835 8.40808 29.9356
1 29.5526 4.67705 7.03692
1 1.47727 23.6958 7.05624
1 6.02054 3.98443 8.39861
1 15.1087 9.13222 5.9518
1 18.6998 8.85347 21.906
1 30.2846 15.0099 23.5781
1 26.1437 20.9138 20.9449
1 10.6633 15.5016 3.86553
1 23.8024 29.7177 7.76818
1 3.68389 26.254 6.35133
1 5.58552 19.2313 20.0685
1 7.69367 3.59527 15.8741
1 13.6005 17.8433 10.8592
1 26.0953 24.537 23.479
1 13.3265 5.84208 6.92371
1 22.9561 23.0155 9.59813
1 25.1931 4.72326 16.7877
1 12.42 28.6781 27.1791
1 19.9712 20.1665 2.84179
1 19.6528 25.1032 29.0974
1 14.7798 29.217 10.319
1 18.9491 12.0605 3.2874
1 12.865 11.1645 5.89373
1 21.6731 16.7389 15.1098
1 30.0437 16.7724 25.1718
1 18.1137 14.4806 13.0307
1 28.358 10.6562 25.2372
1 29.7734 14.3088 15.2516
1 11.824 16.1668 19.4263
1 11.5099 29.3744 1.80203
1 17.5208 21.5228 19.1813
1 21.6543 20.028 10.8004
1 9.21339 18.3502 16.7994
1 0.591483 10.6583 16.4938
1 25.5383 21.3622 28.1113
1 5.56222 19.7085 14.8444
1 6.01073 20.8474 10.0752
1 26.0196 25.8338 7.20583
1 7.22965 26.9068 24.4609
1 28.7597 23.6552 29.7747
1 5.9275 24.4957 19.7157
1 16.1269 28.6452 19.2342
1 21.1707 16.0659 14.1358
1 25.2595 1.2242 6.43346
1 20.783 7.10235 17.9288
1 26.3959 19.2977 13.216
1 21.0524 8.91946 14.313
1 9.97201 2.20869 24.2231
1 18.7047 6.37294 21.2744
1 9.53576 10.8526 18.2992
1 23.2413 23.5302 23.6335
1 21.5156 14.8262 26.776
1 21.1902 18.2334 12.9085
1 25.6302 6.79858 16.4289
1 0.518169 13.0707 24.8754
1 7.88682 2.24312 10.3232
1 12.4708 20.4581 23.1644
1 15.2761 20.5756 12.398
1 3.24224 26.8993 19.647
1 6.50007 17.3538 2.04666
1 5.69102 12.8602 29.6439
1 10.9052 5.80451 20.2028
1 16.2857 24.911 11.7179
1 21.1941 26.2698 25.9866
1 13.183 12.5778 21.4927
1 23.5418 21.6735 1.88289
1 15.6739 0.794307 4.09696
1 2.77824 29.4402 4.55047
1 22.1587 0.41276 6.12651
1 20.6322 13.6527 25.4193
1 22.8027 12.7032 7.82414
1 2.35068 21.2995 3.66468
1 1.36699 5.50017 23.8892
1 16.4349 22.0258 29.5241
1 23.6747 23.764 16.6074
1 26.2966 5.90508 14.5397
1 9.79496 27.5571 17.944
1 1.51844 10.0987 10.5482
1 29.9189 10.1586 21.3654
1 11.0195 21.3223 24.96
1 23.2254 7.16259 11.4242
1 3.30034 16.73 12.6187
1 15.8148 5.14117 7.23992
1 11.3786 21.595 30.3567
1 4.76923 13.982 15.1796
1 19.2868 7.7444 22.548
1 15.7755 3.71097 4.10205
1 7.21467 4.83044 10.7627
1 26.0197 29.3229 12.8657
1 15.2928 24.425 23.9731
1 7.73289 29.13 29.7681
1 16.2601 7.26496 8.77199
1 6.35761 13.9074 16.9124
1 23.1357 25.2496 30.1773
1 20.5516 26.3207 16.1345
1 21.7369 29.9507 4.06267
1 12.6813 9.96302 14.6928
1 10.0911 24.351 25.6303
1 9.21854 21.0325 30.3697
1 23.9707 27.5606 5.71339
1 12.2095 24.7112 18.5763
1 11.3683 2.53663 27.356
1 3.49448 2.99581 15.0949
1 20.6573 22.6453 30.2087
1 13.8318 10.6048 16.9931
1 4.05102 6.69006 23.5247
1 5.62862 18.729 7.53581
1 8.91596 2.2431 6.26592
1 21.9012 12.9845 18.2035
1 19.7201 20.7307 24.5748
1 25.9182 7.11072 6.38198
1 11.627 16.4828 25.4161
1 20.0351 2.33471 15.0165
1 6.75088 4.38207 24.6998
1 4.08285 3.3223 28.3042
1 2.50264 27.779 1.61111
1 17.5122 26.8775 8.9029
1 6.83299 8.40261 25.991
1 28.2678 6.87382 1.43527
1 13.2924 3.78607 22.4072
1 1.96439 7.22072 12.4084
1 12.3376 24.0199 21.16
1 16.2793 18.5428 20.271
1 0.968733 11.2059 13.5137
1 21.6681 2.73992 17.9497
1 24.485 23.4844 28.0695
1 16.0887 8.38432 11.6846
1 8.02951 21.5451 5.03935
1 23.0484 18.8029 25.2551
1 27.7616 27.9167 10.1678
1 15.4504 24.0828 3.18224
1 17.9643 18.7265 24.7046
1 9.71291 6.39398 19.7265
1 16.8429 4.66218 4.96249
1 18.9904 23.5174 27.7337
1 6.03075 9.33947 8.30869
1 1.76968 14.8612 1.4074
1 6.88713 8.81715 27.3964
1 1.19053 1.04831 19.4826
1 6.40256 3.03348 16.3017
1 21.3546 6.26801 12.3783
1 10.8676 16.6053 17.0571
1 6.85453 21.3185 1.52459
1 1.39817 17.9883 30.0419
1 23.5322 19.0797 21.3941
1 12.5177 6.23317 2.22767
1 22.8995 16.2476 13.0703
1 24.1778 26.0566 23.8275
1 8.84391 3.9018 0.930618
1 6.7179 2.13488 23.6583
1 8.34951 5.27456 22.3618
1 24.2607 16.7095 27.3708
1 8.48875 23.7106 6.62985
1 29.5398 1.22905 27.8799
1 17.9744 24.5499 3.02719
1 26.5763 2.92491 26.8853
1 18.9903 21.8929 10.5209
1 24.3771 25.0009 9.15957
1 18.0502 12.2835 29.8951
1 11.0011 20.3614 20.0335
1 19.2477 29.1266 14.2894
1 9.00112 1.41471 3.36933
1 12.1442 22.4712 4.47702
1 17.7756 13.6376 29.5542
1 26.6488 22.0837 1.95921
1 27.8831 11.5864 3.35354
1 13.7591 28.0942 7.06517
1 10.9289 5.89838 24.9796
1 9.04667 21.0033 9.29287
1 12.6601 12.9168 16.7519
1 3.50486 23.4568 20.5237
1 5.48217 3.33932 20.4924
1 1.70143 14.6869 9.50043
1 26.3542 7.42651 14.4196
1 1.39336 8.06352 3.95198
1 13.1816 25.6686 7.57639
1 12.0455 14.5255 28.1708
1 22.7973 14.6867 23.0634
1 29.1067 13.1441 15.7422
1 4.61222 5.26473 6.81652
1 4.67325 20.469 2.7045
1 21.6776 20.2139 28.1042
1 18.1609 2.57972 20.926
1 26.1152 6.01012 21.0337
1 15.489 9.60725 25.3251
1 11.87 6.76738 8.62484
1 4.82533 23.9997 9.72268
1 9.0117 14.9883 12.6629
1 16.8613 22.4048 4.43695
1 13.1407 8.26157 28.4402
1 19.1674 28.919 27.3692
1 12.6311 1.35466 21.436
1 5.97973 1.77435 28.9744
1 8.67314 4.17468 16.4984
1 26.2867 17.2785 25.0922
1 19.4984 0.496223 3.52483
1 15.0478 7.25594 29.8988
1 0.77953 13.726 7.28379
1 22.2135 0.898366 28.5308
1 24.3323 0.238669 5.34302
1 16.6701 27.9797 15.4353
1 1.47037 30.3156 4.89521
1 5.39767 24.8472 1.25632
1 18.3429 26.7892 22.9649
1 15.6766 8.28394 27.716
1 7.25572 17.4532 27.4793
1 10.6102 18.8998 7.49873
1 16.0615 10.0522 8.67165
1 7.78692 22.2171 10.3591
1 25.0084 9.07005 15.4432
1 27.0681 11.6902 14.8931
1 9.6982 28.4337 11.5447
1 13.3063 9.81722 24.2235
1 20.7903 1.68591 16.074
1 26.4736 11.7699 26.7168
1 10.857 23.9004 21.3925
1 6.9057 23.4411 24.9793
1 2.71698 19.0781 27.4764
1 7.07211 16.6587 17.9375
1 27.6976 15.4925 13.034
1 12.8099 13.3388 19.1616
1 23.4283 10.2291 13.4359
1 2.85102 10.6028 18.21
1 25.6403 25.5522 30.3183
1 13.9233 24.499 7.61018
1 9.39822 14.5694 19.8763
1 17.2962 0.8689 13.3916
1 7.08044 0.260612 6.04181
1 11.0871 6.18354 2.23332
1 21.4241 24.9154 8.06081
1 18.0194 16.3686 15.1486
1 9.96366 8.14639 29.6577
1 15.5102 12.2141 20.106
1 25.9507 7.25517 11.9305
1 25.2345 29.2721 20.9696
1 24.3859 4.34939 25.2747
1 20.8933 21.3237 8.73678
1 13.9806 15.67 3.97816
1 16.7782 5.13654 2.13445
1 27.5166 4.94126 11.5928
1 2.1034 13.8644 7.70789
1 26.7999 0.980877 21.9372
1 28.4129 7.7265 27.7008
1 12.7719 4.44462 10.5137
1 18.4113 22.0806 7.34676
1 24.7902 1.02456 20.0831
1 18.8512 6.39422 0.394367
1 8.71823 13.4279 4.28151
1 17.6948 22.022 16.8371
1 2.85771 26.1566 22.3753
1 2.62166 24.9457 16.4629
1 1.99758 1.54671 20.7241
1 2.14686 26.9298 9.50115
1 13.2855 14.1998 14.5474
1 22.597 26.6461 18.9962
1 6.04262 24.8006 7.13334
1 19.4638 15.8863 18.5373
1 13.1656 4.95329 19.5164
1 9.33623 2.73469 19.4854
1 26.0677 13.2556 26.0619
1 26.8491 26.9597 5.00259
1 22.8093 1.53751 23.6586
1 18.9505 7.76779 24.0143
1 18.6487 0.376523 0.712459
1 21.4218 27.4143 18.8393
1 7.78548 29.7328 18.92
1 3.22385 8.04917 2.15975
1 20.9902 21.4778 22.3844
1 7.86542 16.1657 11.3233
1 29.6656 22.3223 27.3936
1 24.4072 24.0277 24.945
1 20.3531 15.1636 30.2443
1 5.97642 29.5028 23.8785
1 2.63393 17.493 19.1311
1 4.32975 11.484 11.766
1 28.7175 10.3672 7.45711
1 20.9203 1.80596 22.2957
1 14.3164 4.85276 2.64711
1 13.2816 17.7743 5.26946
1 24.0311 20.9725 12.3737
1 15.1674 27.4255 26.466
1 27.3874 10.3501 12.2472
1 1.2946 21.0774 27.7905
1 14.2157 21.0561 24.8311
1 24.562 22.9941 3.80712
1 11.0993 18.8033 24.8191
1 29.1351 18.0635 22.2261
1 21.9224 25.1379 17.1655
1 11.498 21.5124 3.74226
1 29.9242 8.16828 4.51862
1 22.3843 24.3303 0.629062
1 21.0705 3.55956 1.21653
1 26.8971 16.1527 17.902
1 4.65707 18.3101 5.383
1 4.85433 26.7363 23.9799
1 5.98612 23.3229 9.11223
1 10.4232 12.8991 1.38209
1 1.591 9.14117 27.3694
1 7.44188 12.2917 16.6398
1 3.53398 2.98354 26.8838
1 26.778 24.4141 26.9047
1 20.1958 13.5736 5.11349
1 4.25012 24.6258 4.26589
1 12.6381 30.2461 9.51418
1 1.49463 29.2572 14.6874
1 26.2922 8.34886 27.0426
1 12.2495 14.9167 1.9481
1 11.6417 24.9217 10.1232
1 11.8702 23.5845 16.6062
1 9.17385 2.83738 3.16503
1 2.84042 3.59488 17.45
1 3.11005 2.35146 24.0194
1 1.62378 17.6905 26.4511
1 14.3989 21.2349 22.3753
1 5.62343 7.30975 2.34381
1 28.4207 25.6749 19.1511
1 21.4496 2.36557 4.99066
1 26.7469 29.2687 18.9565
1 11.1841 22.5824 24.9251
1 10.0394 0.575199 3.33304
1 28.5679 18.4543 8.59002
1 21.7313 13.2713 11.0165
1 0.195714 19.167 21.7407
1 1.71544 30.3148 13.6947
1 7.54513 4.93577 29.1539
1 13.1673 16.7143 6.31651
1 13.2866 29.6881 27.5291
1 7.14403 18.7963 29.5714
1 18.8564 3.87692 25.673
1 7.49204 6.19825 11.4215
1 12.5785 14.9822 6.38718
1 20.3774 24.6269 20.5775
1 1.78018 5.39169 3.27048
1 18.3197 0.392702 4.29384
1 8.29367 19.2643 26.2511
1 27.119 22.2039 21.3408
1 4.09589 7.33329 22.3414
1 22.377 28.1678 8.73439
1 29.5767 11.6774 27.2082
1 13.0484 19.1125 18.8507
1 14.7664 10.4254 8.9578
1 21.0451 9.17865 24.2744
1 29.5012 19.2544 28.2561
1 25.4332 19.0055 27.3749
1 12.6136 26.695 21.3178
1 17.3116 27.8974 3.12784
1 17.9431 16.2892 11.3923
1 13.9869 17.1926 20.2866
1 12.496 4.13282 23.4168
1 7.38287 23.2733 13.1841
1 27.0386 18.5054 21.5198
1 21.6084 15.2526 2.98563
1 0.711572 25.5497 21.1244
1 21.9767 28.2102 11.3459
1 10.5878 14.6701 20.6509
1 19.4575 28.0487 17.8564
1 19.3928 2.96841 10.8349
1 16.9249 28.1745 7.18776
1 7.57503 20.403 5.58735
1 24.8663 5.27878 19.0653
1 30.1542 21.3416 29.7985
1 13.4509 9.74085 26.6672
1 24.5091 26.9007 10.9202
1 7.98148 19.1862 0.438655
1 20.6769 21.6824 18.1076
1 23.2067 10.5705 8.1631
1 25.2103 3.80994 19.1393
1 15.7047 7.39427 7.36992
1 8.87518 4.59631 29.0877
1 27.9221 5.12901 19.0771
1 7.85479 9.94666 9.50177
1 5.33627 28.668 14.988
1 30.2009 16.421 27.4633
1 19.7665 24.2395 18.0256
1 2.60685 5.21989 14.336
1 18.6276 9.70337 5.19108
1 27.1568 25.1749 25.8731
1 19.6531 11.5969 20.4632
1 26.5727 0.686102 24.7473
1 10.4146 26.3653 15.5843
1 14.4179 8.41187 4.85429
1 27.1487 26.6689 10.78
1 16.1562 27.6978 8.53107
1 19.428 9.84068 8.29286
1 11.2607 24.7884 7.58931
1 23.038 29.265 18.0685
1 16.8877 12.3004 6.51364
1 12.5225 10.6809 23.1728
1 14.3674 6.09993 23.018
1 17.2959 1.12704 3.64165
1 17.884 5.62926 7.81524
1 5.7985 8.70425 12.0714
1 1.85944 24.9127 27.3315
1 22.6601 0.246519 7.57723
1 24.0514 25.7871 13.1569
1 9.2588 7.84014 0.418735
1 9.75397 24.612 4.51254
1 11.1196 21.5428 27.8193
1 17.3725 4.50184 23.6639
1 12.8035 25.6153 16.1628
1 3.53266 8.46211 17.3802
1 3.72738 7.39205 14.6349
1 21.6536 24.4313 28.5943
1 18.2618 20.7933 8.103
1 5.14757 4.64504 20.1217
1 1.62862 22.6979 13.5289
1 5.0009 14.137 12.0943
1 20.0284 8.14301 1.05136
1 29.6626 11.0552 23.4884
1 28.9572 13.0128 17.0065
1 21.9672 23.6661 27.3858
1 7.33243 7.11225 18.6666
1 27.5709 20.1089 5.90249
1 1.58171 25.7434 7.16866
1 17.5273 8.91876 20.0693
1 1.7261 9.22507 9.05104
1 16.9288 11.5642 17.909
1 24.6437 18.6014 3.78826
1 6.26873 24.729 2.28472
1 25.4673 5.1147 24.9935
1 13.3286 9.08789 4.3529
1 20.3945 1.68766 3.3183
1 14.0886 6.65837 12.7242
1 7.78773 13.5431 9.62769
1 2.85428 15.5076 28.5632
1 23.2953 26.4143 11.7681
1 12.4477 22.5993 15.5855
1 10.8888 29.7197 25.8176
1 4.134 4.62837 22.0123
1 12.9207 13.3819 25.7725
1 5.27635 5.29377 16.2485
1 7.40111 14.266 26.1622
1 10.0099 28.4322 7.21861
1 22.6539 6.70807 21.7327
1 27.5093 22.2433 5.28135
1 17.4576 12.5603 22.0382
1 16.5562 0.715594 21.4961
1 4.82117 29.1363 17.6921
1 14.8309 17.8646 29.5758
1 10.9316 6.98589 29.0507
1 23.6325 29.3114 25.1202
1 16.1218 6.3491 6.33973
1 11.9462 29.0678 13.8435
1 23.7202 29.1775 28.1518
1 19.772 21.7168 0.877824
1 25.0571 7.17436 29.0082
1 10.2594 6.83881 12.4254
1 14.9392 28.8603 27.2036
1 7.31354 2.47482 13.6304
1 29.4235 6.38782 23.4838
1 10.5339 8.90654 10.9763
1 21.403 26.3574 3.97035
1 27.8918 4.93689 8.38937
1 14.0468 16.5034 25.1658
1 7.06957 4.84503 9.1069
1 22.3241 21.5372 30.2347
1 27.7403 4.36859 21.12
1 18.3002 1.8641 12.6956
1 19.0494 5.16122 11.6168
1 17.829 23.404 14.8478
1 13.6532 14.4058 1.95149
1 23.4642 9.73861 23.1176
1 13.8766 15.3171 5.7179
1 29.7839 15.0256 0.58717
1 16.1023 19.5333 1.60316
1 3.73887 19.8028 8.58337
1 13.367 12.9269 11.0565
1 2.6222 10.4846 16.6394
1 26.7862 5.23079 28.5091
1 19.2536 8.89259 20.5238
1 2.45551 12.8003 18.4777
1 11.3918 9.27158 9.7358
1 2.53501 7.37509 20.4032
1 4.30548 6.34455 26.1769
1 27.0317 13.9962 25.0663
1 5.40656 12.9788 8.46254
1 10.3824 17.0897 23.3599
1 27.0736 9.41526 23.3826
1 5.82145 2.75553 4.72243
1 21.6396 21.17 10.0503
1 1.48341 11.4242 2.25741
1 11.0414 13.316 12.6393
1 25.9466 6.37406 25.8075
1 3.43631 3.48281 11.0513
1 3.9475 9.83392 9.65964
1 17.8994 4.97352 18.2821
1 25.3485 17.6334 27.609
1 25.5257 4.90922 5.46591
1 23.8724 19.1203 10.3002
1 25.1591 20.5483 30.1864
1 15.0423 24.2867 16.8951
1 26.6415 4.65314 23.9757
1 4.19987 10.9052 20.9063
1 17.6636 8.39191 16.7888
1 15.5827 14.5423 9.09914
1 25.9905 13.478 16.1017
1 11.2136 21.6011 2.31478
1 11.6101 17.855 16.9681
1 17.9703 22.3483 22.6759
1 11.9851 4.97446 16.1961
1 18.3202 26.829 3.82283
1 0.740064 4.56852 16.1672
1 28.8542 3.96385 4.60667
1 19.6506 7.85653 19.7805
1 16.5477 10.2641 21.368
1 25.8182 4.55134 21.5106
1 1.08345 23.7101 2.28093
1 23.5395 5.22079 21.6247
1 26.2493 12.0133 20.8644
1 24.4559 19.5696 4.77027
1 15.0929 25.18 12.4501
1 25.2534 20.8537 24.2345
1 13.3992 30.1461 12.0722
1 6.94273 14.3034 21.5053
1 24.7682 2.04437 3.7056
1 0.457732 2.1299 7.38466
1 22.256 6.92489 18.2505
1 9.2605 24.7497 26.8582
1 2.81026 23.9548 29.477
1 5.09549 28.8116 26.3083
1 6.13271 28.2909 22.9556
1 5.79841 1.61523 25.5176
1 23.16 11.2005 23.0287
1 29.8771 7.70706 5.87756
1 1.33943 18.8987 6.08616
1 16.9033 22.2743 23.9863
1 1.41815 1.10521 1.47176
1 29.36 2.97515 22.2682
1 11.2846 10.3948 8.94951
1 0.707366 7.84933 18.5502
1 28.8542 26.7534 8.37531
1 7.76776 0.324434 29.5833
1 14.8876 15.9003 6.6043
1 18.1195 2.31747 17.4252
1 8.59247 27.2359 9.23008
1 20.2653 26.072 3.00962
1 25.3169 8.58934 0.835546
1 23.7192 18.769 20.2087
1 9.82952 28.9702 17.2138
1 24.4975 12.6969 15.4392
1 26.3419 21.6751 23.7
1 18.9314 24.2223 7.82034
1 19.4404 12.883 1.5869
1 0.182166 13.8622 4.48127
1 11.457 12.1017 0.950947
1 17.6436 8.53754 0.759584
1 20.2141 18.6394 22.8017
1 5.36868 15.4394 4.40942
1 15.8917 7.15432 25.0755
1 27.4205 1.30311 30.1768
1 25.1619 7.74115 18.818
1 25.997 9.39319 27.9305
1 0.744586 7.85603 23.3322
1 25.6413 16.6206 4.10126
1 12.5733 22.176 8.14979
1 0.641011 11.3173 27.7391
1 19.6738 4.22555 1.25993
1 30.1807 5.22712 28.2367
1 10.2719 0.830952 21.7466
1 20.8841 8.19081 9.10834
1 28.1924 21.8387 20.451
1 11.0663 18.9682 10.4781
1 28.1486 4.12147 2.86004
1 23.7065 23.1477 5.01889
1 13.0201 16.7143 19.0179
1 29.3008 4.52792 25.9964
1 23.5408 13.4646 23.4963
1 7.66375 26.7304 5.15972
1 7.68088 23.7445 18.6825
1 21.832 16.7862 21.4035
1 22.9995 19.1805 1.19416
1 8.65902 14.6996 28.7805
1 29.6828 6.74114 1.10079
1 10.5334 3.16048 20.3732
1 6.89541 1.05754 13.4372
1 9.16693 8.75566 15.6351
1 12.7678 11.8968 7.08319
1 9.1685 11.9336 27.2088
1 21.456 3.49439 26.826
1 1.8821 26.9521 8.1179
1 15.4348 6.12726 5.05155
1 6.20092 15.6275 9.31564
1 17.0565 18.7557 9.95816
1 9.17023 24.2986 11.491
1 13.0999 14.1286 20.3736
1 26.1159 18.1387 9.91286
1 28.9668 29.7132 14.1684
1 18.4751 14.2863 24.3693
1 1.30794 13.3182 26.173
1 9.14304 30.3898 19.1221
1 11.445 19.9774 12.6166
1 18.0154 1.29548 6.56598
1 23.9904 17.5726 15.4472
1 15.5488 5.92776 10.776
1 3.08048 8.43836 26.8937
1 8.93892 12.129 25.8467
1 3.22374 22.5064 26.0608
1 10.9073 4.6808 17.3878
1 0.485291 14.2796 18.7985
1 26.5137 29.2079 4.45787
1 4.39943 18.461 29.1571
1 21.5798 6.69926 25.417
1 4.18265 23.3553 15.151
1 16.7859 5.43806 10.3868
1 29.1595 21.4414 24.9022
1 19.5213 4.04038 6.77019
1 27.1227 24.6394 1.69959
1 0.716714 27.9856 20.2966
1 1.94365 17.0627 13.0654
1 10.3148 19.1199 29.619
1 17.4566 0.795067 16.7609
1 15.9552 19.303 11.9173
1 26.1837 14.2349 28.1187
1 1.43824 27.7623 0.434572
1 15.3266 12.3285 12.0823
1 29.1292 23.5755 4.09278
1 7.8405 11.2771 5.95964
1 22.9345 25.4925 9.54536
1 3.45317 9.39889 16.2156
1 10.7876 21.7271 14.2676
1 12.8723 15.6622 25.4093
1 0.397617 26.9044 21.0833
1 27.0291 1.94722 24.0272
1 22.1707 16.6047 29.5345
1 16.4 4.63565 9.3851
1 27.0049 11.5395 10.1728
1 0.662125 27.1746 17.0431
1 25.8451 11.6887 3.42006
1 3.82919 5.86691 4.72129
1 24.6648 2.70514 27.538
1 17.8897 9.7193 26.1758
1 21.6383 17.669 0.451776
1 26.977 11.8021 5.41827
1 27.0579 16.6254 5.98543
1 12.2072 17.9478 25.3067
1 26.6378 2.07732 22.569
1 9.76952 5.83412 28.9949
1 5.69261 18.1124 0.929048
1 11.0297 15.4084 28.8985
1 0.237201 5.76206 18.0113
1 28.1971 15.3622 20.206
1 2.89821 10.6071 29.0877
1 21.2148 0.98931 18.6383
1 9.1325 9.38613 25.8226
1 15.5844 21.2503 9.89534
1 29.9469 19.5579 18.5005
1 25.596 14.3848 26.9795
1 24.4594 28.626 22.9861
1 29.7658 13.0272 20.5459
1 23.8776 9.39067 24.3055
1 1.02288 6.89624 16.4382
1 21.6613 22.1435 0.940176
1 24.4216 19.8288 27.4013
1 6.25129 23.2332 18.7472
1 16.3436 1.55947 28.7737
1 24.6072 22.2146 18.7203
1 7.8752 19.1277 8.35685
1 30.0085 3.29052 4.39565
1 6.13605 26.984 23.6144
1 21.6249 27.769 10.159
1 20.1899 22.468 15.1489
1 2.4675 24.3494 9.50223
1 13.6659 5.33433 13.4382
1 21.6081 18.3112 25.0088
1 19.1834 19.5034 9.16925
1 7.91549 18.8186 17.1967
1 26.9448 19.7969 20.7953
1 17.3419 25.8653 4.91418
1 17.5651 0.22754 27.5964
1 18.5216 19.7902 20.379
1 16.5039 8.61402 24.6999
1 10.8444 9.44891 27.5553
1 24.226 22.6491 25.4303
1 3.27714 5.86487 9.59764
1 2.73726 2.81179 8.64642
1 7.56044 14.841 9.72153
1 12.5717 23.723 27.6836
1 29.6361 1.05381 26.3899
1 27.8385 12.8908 22.8232
1 18.4444 19.1186 4.94342
1 6.28317 12.0068 15.2532
1 10.003 14.1341 8.25052
1 17.2753 2.68544 27.0902
1 3.59283 26.5657 29.2006
1 25.1458 14.6369 11.3807
1 4.7108 20.8083 30.3236
1 5.24816 2.90727 9.40984
1 0.663217 1.39323 22.9009
1 10.4453 10.8865 15.123
1 19.6365 20.19 5.02934
1 29.5771 21.029 8.242
1 23.739 6.47541 2.79003
1 5.77674 0.619699 19.8277
1 1.47256 3.03946 13.2805
1 12.9411 22.8146 22.3874
1 20.8105 7.23629 20.7496
1 12.5096 13.3567 15.3843
1 24.945 20.9046 20.4432
1 15.4411 29.7273 26.2957
1 15.3754 21.2012 6.39725
1 19.3508 7.55908 11.1537
1 11.2745 11.9396 12.5089
1 10.9948 28.4437 21.1604
1 12.0391 11.6829 9.71152
1 23.0749 3.78334 12.1511
1 12.1045 29.0001 5.57488
1 12.2002 5.85067 26.8692
1 8.14604 15.2675 15.5256
1 20.7162 10.0942 26.5723
1 15.2924 25.3708 22.4277
1 17.4291 26.7117 27.0482
1 28.0969 14.8975 25.4427
1 21.2116 23.5319 19.3147
1 6.15773 9.44222 24.9673
1 1.90645 26.9066 4.55372
1 27.1888 19.1648 0.600126
1 10.2438 2.93889 10.0915
1 12.4276 11.3893 16.8224
1 18.4145 4.58207 28.077
1 4.21088 1.02576 16.9262
1 0.550173 20.4364 14.5246
1 18.0149 26.143 7.51494
1 21.22 29.1434 23.3268
1 3.75869 22.0139 20.4848
1 7.27848 24.316 5.29021
1 23.6501 4.90345 24.0927
1 24.4162 13.6925 24.8552
1 21.4069 5.85479 2.23078
1 28.1412 1.30803 27.8654
1 28.0476 8.43516 25.5342
1 23.2189 0.968185 16.3986
1 15.4056 11.2216 28.7969
1 4.34791 10.9523 29.5726
1 0.359776 11.2236 17.6655
1 16.5994 19.2683 18.817
1 14.5675 3.03114 27.4961
1 8.69105 4.89732 12.9739
1 17.3664 20.287 6.12814
1 21.0071 17.2839 6.91473
1 12.1005 21.5484 22.0364
1 27.7011 9.75389 29.3796
1 13.2088 20.5734 10.6563
1 1.96421 11.9591 5.38117
1 20.4769 27.2175 7.642
1 21.613 6.57888 5.68261
1 23.2196 26.7775 28.34
1 27.0341 20.9032 27.8315
1 0.728263 29.488 15.7987
1 7.84713 4.8766 1.14956
1 9.88793 17.8858 24.4549
1 3.79629 6.06702 28.5358
1 5.06061 0.64671 10.3743
1 1.60847 20.6369 2.71447
1 3.37728 3.23037 3.64028
1 13.4055 10.2794 3.59666
1 26.2497 12.8781 0.317685
1 12.3266 11.4269 2.07877
1 5.36508 4.86584 26.4791
1 27.9031 1.36092 18.5411
1 8.20435 26.9652 27.0907
1 1.58813 7.69751 6.81075
1 21.4034 17.9792 23.6419
1 14.1967 25.4242 16.8211
1 16.2986 26.1671 18.5145
1 29.5415 24.7049 28.1065
1 27.5877 3.82839 18.1722
1 21.0795 24.8762 18.348
1 13.8986 25.3141 10.3345
1 30.2345 22.2681 8.23989
1 22.7929 26.7729 0.799373
1 4.50982 14.836 10.7855
1 25.6809 27.7541 28.5385
1 5.6158 23.2286 17.4788
1 27.011 20.4912 12.9662
1 4.19161 16.2349 0.548503
1 6.44789 3.66456 6.9715
1 10.4661 27.4593 26.6143
1 6.73733 16.2179 1.1261
1 16.6825 10.122 1.63621
1 27.1049 29.0826 22.7236
1 12.5623 1.44205 6.23496
1 4.43678 4.03835 25.9719
1 14.5827 27.8617 5.84725
1 14.9514 24.5699 19.7194
1 1.07304 21.3008 21.0533
1 14.0523 27.1906 25.2391
1 17.2594 2.62508 4.5391
1 5.01044 21.3727 20.4331
1 13.8316 0.47486 5.79603
1 11.6225 7.78447 27.9041
1 13.6316 7.24667 11.6562
1 27.3743 28.0907 17.0499
1 25.2811 26.1839 2.42184
1 20.7664 14.2701 10.7908
1 22.6736 2.62532 12.212
1 7.55638 24.3105 24.2376
1 7.46031 25.76 25.1614
1 3.3302 22.3652 2.96451
1 28.6934 23.6608 23.0523
1 24.3185 2.29967 15.5901
1 8.70376 14.6916 5.11699
1 1.03538 22.5232 22.9811
1 15.9778 20.1789 5.73938
1 13.5122 17.7541 24.7428
1 29.1714 4.90988 23.6588
1 18.0164 3.47044 22.7523
1 0.702133 23.2257 15.8187
1 14.0115 16.5153 21.443
1 18.8249 20.5044 23.483
1 7.67771 17.9642 26.1909
1 16.6943 19.1397 24.1237
1 26.3407 16.5561 0.752877
1 27.1395 2.59972 0.309157
1 26.5101 23.341 2.44942
1 25.4903 12.217 2.07828
1 17.4297 20.61 26.7777
1 21.9223 6.33286 20.4821
1 11.7345 27.5033 0.353038
1 30.3731 29.2318 28.9421
1 2.18426 9.28975 21.853
1 4.23518 8.82796 1.36226
1 25.3531 5.61399 15.6237
1 25.1198 2.63067 9.03043
1 3.14262 29.0717 8.13911
1 13.7034 23.4683 8.73724
1 2.31401 16.0999 23.8348
1 13.3425 19.6909 21.1757
1 29.7041 7.36071 26.9253
1 10.4003 9.96761 25.0227
1 8.62966 21.1058 28.9848
1 19.9161 11.0205 3.20384
1 16.0986 29.0964 24.8616
1 10.2694 17.464 5.65271
1 6.84402 22.6871 29.7963
1 26.9642 1.13058 9.05746
1 19.7641 3.15325 3.28707
1 28.2618 9.58137 12.7642
1 20.939 26.3258 14.4744
1 22.6323 6.52306 19.4774
1 11.9054 7.27232 26.4949
1 17.9972 27.9372 24.7007
1 7.90339 20.4244 1.03805
1 3.15884 13.0407 0.588924
1 4.49022 29.2056 6.88797
1 7.24729 17.9981 5.75566
1 6.18811 22.0167 19.5054
1 11.2128 10.3405 20.2308
1 17.7078 17.9704 7.73374
1 25.8378 11.2994 30.3897
1 30.1136 4.72755 4.15471
1 20.4665 4.68254 19.0475
1 29.971 28.5501 19.3514
1 2.60442 18.6539 21.1936
1 3.36102 16.4617 27.4876
1 9.08995 8.27258 1.96067
1 5.52236 8.13513 13.5207
1 4.57793 4.58396 3.94761
1 2.05995 29.5459 3.36455
1 3.84029 25.5674 13.4949
1 28.8696 16.0409 18.8722
1 27.743 8.09857 19.7942
1 22.5266 27.0309 2.06589
1 0.580339 24.7626 7.53529
1 20.516 22.4894 12.1636
1 16.516 25.1688 3.40194
1 24.9701 15.1782 24.8085
1 19.0021 10.3186 11.3666
1 5.76092 4.12814 23.8773
1 14.8417 8.01172 18.377
1 17.8726 2.05918 29.2154
1 7.09565 16.9428 14.6601
1 16.107 22.3237 18.7986
1 29.3859 11.9036 18.0804
1 9.33761 16.3585 27.2974
1 9.78753 2.69028 15.4411
1 14.0728 10.1425 14.472
1 15.0033 29.0277 19.7721
1 4.83437 26.1532 8.81073
1 21.0089 19.0534 26.0381
1 11.0366 28.9932 16.2942
1 25.095 4.95114 11.1131
1 30.1045 17.3307 7.26143
1 25.5775 26.3694 28.786
1 25.4207 3.22174 20.332
1 18.9657 24.7769 20.1874
1 15.7163 4.47988 22.4238
1 8.37866 10.1281 4.91158
1 16.0337 2.41552 17.7848
1 7.28331 22.1736 24.5285
1 23.5071 14.781 6.32733
1 10.1518 11.7167 22.6325
1 5.61328 24.2704 3.48834
1 6.84514 28.538 28.4881
1 12.6216 27.3406 9.86747
1 18.6234 7.72759 6.21847