4096
Atoms. Timestep: 1360
1 12.6815 10.9584 16.441
1 13.0684 24.3507 14.4306
1 8.06787 2.34658 2.05707
1 17.7758 2.54466 27.0909
1 0.358335 27.4634 23.4669
1 7.04367 21.6418 19.0802
1 5.89595 1.13925 7.14876
1 23.8724 4.94993 14.2028
1 25.0978 4.90385 3.78637
1 24.3111 18.6398 4.02131
1 24.3836 10.5254 19.9677
1 7.51677 5.49164 10.8023
1 8.01685 26.4992 19.1401
1 21.9009 28.4438 9.06026
1 22.792 23.926 15.3096
1 3.50212 26.4283 4.55848
1 28.5576 27.0109 19.5704
1 12.4708 15.4168 0.326684
1 26.7826 17.3318 7.47545
1 28.7943 25.719 19.5454
1 7.83925 29.2421 29.0745
1 10.4618 26.3998 27.7363
1 14.9815 3.41842 17.0988
1 10.7641 20.556 26.5094
1 6.23739 4.90976 11.141
1 22.6773 9.67476 16.3559
1 15.965 30.1935 10.186
1 8.3722 5.31614 2.58841
1 22.8558 11.3677 1.22565
1 16.0548 20.7679 1.57651
1 13.3111 25.5188 12.8381
1 9.03506 17.7648 27.4504
1 18.6332 11.5714 12.6332
1 11.6689 17.0885 25.5999
1 5.39046 12.5901 3.48352
1 5.0473 29.0169 16.9663
1 22.4991 30.2962 11.7518
1 19.2362 29.7483 26.4026
1 5.40311 14.8407 29.9384
1 19.5873 10.2129 21.0244
1 14.798 11.1924 23.1954
1 24.1846 14.7972 7.23275
1 7.07324 15.999 15.364
1 24.355 3.88292 30.1138
1 12.189 6.46281 23.4144
1 7.85764 1.07804 14.8285
1 10.9262 28.4716 19.5268
1 14.0997 7.57356 1.2547
1 4.74032 23.6594 2.29652
1 21.3826 2.24116 12.2187
1 11.5692 26.988 3.91733
1 15.2909 2.19604 13.4971
1 5.61748 20.0491 17.6771
1 15.6686 12.6924 8.75095
1 6.98073 29.753 21.4555
1 17.4117 11.1132 20.5037
1 29.6662 16.6457 11.4755
1 4.82034 23.7883 26.5018
1 30.026 25.5379 28.1398
1 28.7166 20.6918 25.9756
1 29.282 5.3295 9.16618
1 7.04123 0.97002 26.5399
1 20.8152 10.4924 7.41143
1 6.69246 16.4182 28.0049
1 12.6449 1.77202 6.86901
1 21.0676 20.7187 15.6267
1 11.7303 12.5404 22.8985
1 16.5193 21.6223 15.1089
1 27.8499 8.46183 26.6933
1 17.8941 13.5812 19.8463
1 7.89549 23.9119 26.9604
1 30.0727 22.9931 4.20914
1 4.06266 1.78446 2.6201
1 8.11579 28.2027 2.74475
1 22.1784 5.21591 12.4185
1 18.5215 25.2744 30.0175
1 29.1489 0.700747 22.9421
1 5.69792 22.8528 22.2677
1 4.99409 15.2418 25.9129
1 24.9238 27.3087 27.8815
1 21.7558 6.96868 2.02706
1 15.8522 11.617 26.3562
1 9.78782 10.0183 18.7099
1 27.0803 24.0145 25.0372
1 2.68227 11.8091 7.56958
1 3.41889 21.5768 4.5762
1 21.4005 13.4272 28.9805
1 27.0193 0.48685 2.17487
1 12.0286 6.82325 22.091
1 25.2767 7.19956 12.5849
1 22.9325 24.7347 9.65385
1 7.82648 7.42515 13.5393
1 26.2728 28.5773 25.4199
1 5.81168 19.8249 15.1704
1 5.50078 20.5619 5.14323
1 17.9357 23.3535 14.7122
1 26.0273 17.7258 9.93083
1 7.97781 7.72232 2.77304
1 30.1982 5.37994 11.7146
1 10.9293 19.7715 25.2379
1 9.53851 10.9705 4.90467
1 0.773402 26.4287 20.597
1 22.0422 2.066 17.6117
1 12.9543 2.10362 3.39893
1 23.5716 13.1636 16.1277
1 29.3004 20.4726 4.61768
1 1.01692 7.41899 7.75786
1 10.375 24.5766 20.0898
1 28.6313 29.7564 23.4146
1 12.8573 29.0256 18.3078
1 10.3139 24.0006 28.0169
1 14.309 19.1222 0.989223
1 27.123 28.7646 17.9557
1 19.9216 0.824865 6.8914
1 3.64686 11.1842 19.793
1 21.8892 15.0022 15.5321
1 13.2452 29.4731 1.13064
1 29.3999 22.1148 13.7221
1 4.20676 19.6599 28.9644
1 21.8981 10.5684 16.9361
1 28.0403 26.1054 22.0683
1 27.9296 21.9664 3.91752
1 13.1096 28.5194 27.7776
1 12.1048 3.95055 16.8944
1 28.9311 14.14 25.3303
1 5.7069 2.27833 18.04
1 22.4242 19.4361 6.62518
1 9.96368 16.4028 12.28
1 7.46116 18.4619 17.2881
1 27.2563 20.105 13.3025
1 28.7101 12.7003 18.6708
1 7.57097 14.5669 7.90608
1 1.56619 20.4132 14.0916
1 1.84978 9.4387 28.8935
1 1.27466 17.9159 15.1953
1 17.9481 9.48623 1.07459
1 17.1671 5.19682 10.2411
1 24.6142 9.70843 17.6192
1 10.0375 22.4128 24.1486
1 27.9528 25.1708 9.4663
1 26.4436 3.71687 0.765069
1 28.8306 24.8173 28.4757
1 17.7978 25.8666 27.4454
1 12.9937 0.250914 6.54837
1 22.033 24.5181 6.35744
1 18.8737 23.3355 24.211
1 27.841 7.15386 8.35155
1 1.04285 10.0178 8.17818
1 20.5177 2.71332 9.28789
1 13.499 25.93 10.284
1 1.02138 23.1233 25.9651
1 30.4522 29.0295 27.2266
1 22.2297 12.5564 4.78665
1 14.7777 0.319864 29.8825
1 7.17382 26.6668 20.2868
1 0.284611 3.32798 19.7054
1 2.00305 23.7691 12.9579
1 15.8089 7.95553 28.3915
1 13.323 0.512616 27.5423
1 2.4082 10.4709 26.5203
1 22.6967 27.5142 3.25369
1 13.6313 20.8259 11.863
1 27.5229 17.615 13.5449
1 15.6344 11.0793 1.41142
1 27.0641 8.67165 10.7188
1 24.4425 10.9769 29.3546
1 14.5567 4.69785 9.84776
1 18.5096 14.6714 19.6254
1 9.69922 8.88672 20.7828
1 15.804 14.443 26.4817
1 28.9787 23.4943 28.6686
1 11.4635 2.6003 18.424
1 11.2 9.91631 30.1748
1 25.4154 8.94224 22.0358
1 3.89758 15.477 15.0982
1 14.0735 10.7875 10.545
1 29.5535 18.109 11.327
1 8.81238 8.6198 3.5886
1 20.9921 18.0548 18.6884
1 5.13782 11.9114 6.39936
1 15.372 1.10542 17.0008
1 13.6521 11.9756 23.3491
1 8.8787 15.9179 17.1984
1 5.69002 5.6225 24.9504
1 1.36239 20.3598 4.97475
1 3.12503 0.347832 16.144
1 16.6797 5.05897 5.87104
1 1.93967 21.7413 13.9061
1 15.9816 4.56069 14.8528
1 27.817 4.65411 2.7954
1 18.355 22.0734 5.87377
1 7.77372 28.8884 26.0335
1 22.4206 12.1728 25.8268
1 8.80169 14.1979 4.738
1 14.54 19.8008 28.8792
1 4.27988 3.62247 11.7056
1 28.3157 24.4588 12.8962
1 3.61 13.9112 18.0246
1 5.88852 8.31671 27.1589
1 9.50247 18.4983 1.82221
1 27.9028 30.2466 25.4814
1 27.6541 5.1156 7.204
1 21.6516 24.7769 2.78489
1 19.0506 3.88692 11.1358
1 27.5235 25.3172 25.5651
1 8.15618 1.72974 10.828
1 3.75147 1.09425 29.4009
1 1.08199 22.1215 24.2704
1 25.0185 17.5632 19.6891
1 4.72354 6.58631 22.8517
1 20.2591 8.05898 5.60477
1 20.5162 2.85649 24.4139
1 21.4283 21.8061 12.4938
1 11.4434 4.08718 24.6035
1 10.0198 26.7535 7.67728
1 5.33477 7.38702 17.7268
1 22.6048 18.2619 22.3342
1 3.9597 1.08341 24.7031
1 28.2634 8.21991 5.36917
1 10.2268 15.7134 2.48907
1 26.7143 14.9139 4.78748
1 4.67696 10.2795 9.28106
1 18.7473 7.95184 19.9307
1 18.05 14.834 1.81659
1 21.5775 13.7419 4.40952
1 17.4838 6.02722 20.7367
1 20.0309 14.4844 7.48674
1 29.8062 7.1694 21.334
1 19.9204 8.66194 25.6869
1 25.6561 2.64397 3.13954
1 6.96737 6.3463 20.6858
1 8.17712 12.8259 9.4751
1 5.53966 11.416 9.27161
1 0.552318 13.8779 1.59685
1 2.33404 29.5961 16.599
1 25.5742 15.4536 16.4796
1 4.74262 6.70585 10.8709
1 29.9155 11.6175 15.6976
1 23.6837 6.97824 4.82051
1 27.2716 20.5714 4.00777
1 4.46 2.16602 28.4232
1 17.2767 7.38386 26.7175
1 16.2253 2.89618 8.52473
1 12.0644 25.0033 28.7226
1 26.016 15.4825 1.32809
1 5.43894 17.0208 5.37262
1 1.1367 11.2256 17.3213
1 16.4822 29.7032 3.59125
1 24.2864 26.0031 28.2138
1 20.5588 16.477 12.901
1 4.37241 18.1609 29.3208
1 13.051 13.5218 12.6171
1 16.1034 17.7569 3.42382
1 22.3806 9.99274 1.20627
1 2.81662 17.0103 6.52382
1 2.42538 25.6805 23.9121
1 27.0686 2.48226 9.69608
1 7.21664 0.96356 21.935
1 28.6882 27.3026 8.79695
1 30.2375 26.0305 16.2516
1 9.3656 10.1883 1.86609
1 9.19133 29.7882 20.5901
1 22.0731 18.3518 4.10964
1 1.34985 16.2927 23.307
1 2.89839 12.9436 9.89288
1 12.6504 22.7534 8.79456
1 9.3525 0.106656 26.7735
1 13.2824 6.29583 27.7487
1 4.71426 6.86679 8.52309
1 28.2634 23.6141 6.93932
1 15.754 5.54093 9.52123
1 18.4949 4.50738 10.1556
1 21.6951 9.04684 21.7688
1 30.5793 15.1272 29.0014
1 0.580204 17.9879 20.8441
1 5.04786 18.537 5.16294
1 26.2057 2.42176 6.509
1 3.46533 3.43196 17.3291
1 6.74545 17.8697 28.3426
1 8.83339 8.60263 14.3634
1 13.3012 12.2406 13.3575
1 1.32398 1.69035 22.2128
1 12.4297 9.7575 18.398
1 24.1002 25.8062 6.61069
1 2.76246 2.35129 9.7741
1 16.1574 2.04916 25.9265
1 9.28882 23.6879 14.8433
1 7.07565 23.7212 29.6474
1 21.2254 28.1129 6.24828
1 13.3703 11.2345 9.41158
1 6.92609 12.5929 7.21123
1 21.6887 28.918 11.7328
1 1.86201 23.3559 23.3625
1 15.2565 17.7725 16.4425
1 1.58639 13.0259 19.936
1 6.11775 16.148 14.2913
1 20.2496 2.91656 27.7269
1 16.3902 17.8249 28.9286
1 12.4922 24.1683 8.8162
1 21.6535 23.1964 6.46557
1 23.8945 10.5642 15.7072
1 21.8824 9.54375 26.4044
1 28.8526 9.39285 4.69017
1 9.82293 19.6108 17.6897
1 13.8426 17.3258 6.20909
1 3.07932 27.5267 3.90311
1 11.9344 19.3412 27.71
1 26.835 23.4614 28.7548
1 11.4587 30.2265 26.2768
1 16.5468 -0.0408733 13.0794
1 28.1555 14.5942 17.1128
1 1.38863 27.0921 2.40653
1 26.8232 1.77051 15.1892
1 20.6134 11.2522 8.49174
1 27.1664 1.22401 16.5274
1 7.10659 7.22255 23.758
1 22.1357 4.32086 23.4589
1 5.82539 5.44722 20.4128
1 19.734 28.7782 20.5571
1 23.6915 12.5464 4.71801
1 19.6285 16.8421 6.97194
1 12.2911 4.08373 10.5356
1 8.92538 24.6887 17.2207
1 4.61598 30.0821 9.99138
1 14.9515 19.6305 19.4921
1 14.7193 13.4934 8.2721
1 4.90617 20.796 14.4079
1 16.3295 16.5791 27.9668
1 7.43155 22.5717 28.941
1 11.3235 11.3992 22.0178
1 17.1582 27.4556 9.5368
1 27.1287 2.35738 23.7923
1 10.2188 2.53691 20.7373
1 26.9359 14.5207 1.28333
1 16.4297 1.55361 27.2647
1 4.11752 25.6278 8.52794
1 15.9567 28.1482 6.3527
1 25.8665 7.2124 2.45739
1 30.3386 1.00952 4.50116
1 23.1592 19.0866 3.76689
1 24.1849 8.87395 26.9024
1 18.4001 17.0656 25.2528
1 21.897 19.0899 9.51536
1 19.7321 10.874 17.6299
1 1.26573 23.5975 20.6999
1 26.0848 3.66968 18.4166
1 5.09486 15.8784 22.2572
1 5.79973 21.3242 13.4206
1 22.3105 2.85475 11.4148
1 13.3778 15.0945 20.1033
1 22.5602 9.19026 12.3395
1 4.69133 24.9255 15.2627
1 5.93897 21.5496 25.6329
1 17.9423 4.82246 26.7193
1 9.55141 0.372646 6.09293
1 29.5712 3.16645 23.9274
1 28.2399 27.6145 16.3679
1 17.0014 20.5471 18.3867
1 10.9753 28.8279 26.7692
1 21.8925 4.7524 9.9941
1 4.65545 12.5412 18.0108
1 22.9375 25.7883 27.8175
1 16.9999 25.5211 14.6687
1 28.7065 3.54206 24.8874
1 14.039 6.82495 7.32498
1 8.96165 18.1534 29.8564
1 6.59744 10.8539 23.7418
1 18.9814 6.31108 5.78555
1 13.7803 29.4302 10.269
1 0.997602 22.1134 29.6057
1 10.3024 4.016 15.3398
1 21.849 21.1791 0.39908
1 10.3074 13.316 9.23232
1 1.12526 9.74874 24.8532
1 7.25123 18.2685 2.47348
1 15.6875 30.2226 25.6918
1 21.2954 11.5486 26.0072
1 24.0377 21.0297 28.0688
1 22.0547 12.096 6.34546
1 9.91136 21.1701 19.6075
1 26.4768 5.90491 17.4123
1 30.5499 9.78752 21.2263
1 1.88362 11.2939 2.39815
1 26.5851 26.3148 25.2494
1 21.9846 27.1099 8.97348
1 14.6346 10.6674 14.602
1 0.8073 3.96698 6.71494
1 6.94325 5.85744 23.9631
1 7.59245 11.228 6.36495
1 15.2956 12.6438 21.361
1 20.738 24.1358 18.3659
1 1.46118 10.7335 9.54003
1 21.5121 5.65136 20.5696
1 24.1979 27.0504 24.8162
1 6.02082 15.1719 7.04
1 14.8665 21.2685 4.89227
1 23.8314 20.3904 25.2752
1 2.74374 30.1512 23.8172
1 20.7659 24.4971 30.1897
1 23.1955 16.577 28.8655
1 5.89817 5.19047 27.7121
1 25.2741 10.2954 9.68856
1 9.48594 9.79311 25.4711
1 8.51643 11.7932 10.5056
1 3.67892 19.7653 2.7481
1 6.05234 3.24493 24.5796
1 9.76726 4.61576 18.9456
1 30.4208 8.00952 18.7623
1 19.4327 9.15057 15.3067
1 5.36739 12.3391 10.1959
1 2.25895 23.3292 27.1412
1 9.75048 5.96334 2.31995
1 25.9027 17.5287 23.2619
1 27.2733 28.7267 3.76924
1 15.7782 10.6618 12.9225
1 24.5351 25.7961 21.5345
1 3.3542 13.4519 24.8629
1 11.8018 0.899331 27.4488
1 16.4298 5.71179 18.6496
1 29.3307 4.68586 2.54587
1 10.9195 30.0205 2.07624
1 -0.050811 2.35266 4.07927
1 3.63373 24.1413 6.53467
1 29.1344 4.99885 7.81829
1 22.1469 10.5221 12.876
1 25.9483 26.8515 6.61182
1 13.5733 16.1129 1.59186
1 20.3148 27.0572 17.5559
1 17.0168 30.5452 8.03408
1 11.9806 0.472054 7.57416
1 8.81588 25.079 3.1791
1 24.6242 14.4553 28.3688
1 23.8098 22.5599 0.477536
1 26.5171 1.93417 2.05074
1 21.0015 22.8846 9.55715
1 10.6708 26.0471 15.8881
1 15.2913 12.1848 9.84916
1 12.4563 10.988 17.7803
1 16.166 23.6629 21.6353
1 29.9771 5.87524 21.8617
1 27.9828 19.9223 7.41193
1 18.3814 9.97223 20.3127
1 3.00804 16.0342 5.15398
1 10.3276 29.0533 6.62839
1 28.2569 1.17019 30.0157
1 18.1761 18.4319 18.7995
1 23.7012 17.5969 22.6648
1 0.438698 0.886543 21.3527
1 27.9068 18.4848 4.50529
1 19.5558 24.1588 30.3688
1 17.4728 28.5004 19.9792
1 27.0585 27.9985 0.921267
1 16.6945 11.1763 24.1659
1 16.8503 8.65833 6.60602
1 28.3402 22.3625 12.8177
1 10.0994 8.82909 13.2635
1 10.5894 24.7863 30.5626
1 12.2905 14.3702 3.00162
1 20.8644 22.814 24.471
1 1.54112 28.6178 21.9551
1 5.6842 0.751769 20.3589
1 9.11668 2.92162 21.3991
1 8.91414 14.9879 24.0235
1 23.7502 9.02161 1.41682
1 19.1807 8.9232 28.8178
1 3.03825 17.6727 16.7105
1 17.5779 12.7888 4.03772
1 27.6358 29.593 6.77948
1 8.37193 1.14414 9.44054
1 3.98769 6.27311 1.40436
1 3.45755 21.9734 1.74787
1 24.2233 24.5852 21.6196
1 14.653 6.29039 27.9979
1 10.6186 12.9946 12.0843
1 6.71558 17.0827 4.56046
1 17.0902 11.6579 15.5939
1 7.41835 17.5739 18.4987
1 23.6147 1.65824 13.1571
1 20.5087 8.27296 15.6427
1 14.0742 -0.0367377 3.76941
1 7.83255 12.1317 0.122589
1 25.6993 30.4248 16.7271
1 2.27415 21.0544 26.5014
1 8.49504 24.5355 11.2849
1 11.8345 19.6548 12.4301
1 30.0363 21.1272 25.9904
1 5.46258 15.4807 17.036
1 25.9332 14.1416 16.4271
1 12.8059 15.5099 16.8185
1 25.1332 4.745 13.9251
1 7.47667 17.8096 23.6144
1 28.1916 27.9567 1.61535
1 29.8143 21.4048 7.87604
1 13.7522 18.6656 22.2034
1 12.4403 27.3283 6.25224
1 4.63948 9.88286 3.31989
1 9.58656 4.73501 28.1384
1 22.1233 27.6988 12.2044
1 15.2615 13.1334 14.8938
1 17.5404 3.8141 27.6839
1 15.9082 9.27866 4.47805
1 15.1922 14.0314 23.317
1 19.6543 25.9987 21.2888
1 26.3246 29.9867 25.0242
1 22.4952 20.9243 12.6061
1 12.7028 19.4167 10.2431
1 24.0947 14.0017 1.27954
1 1.74031 25.1115 12.2898
1 2.01192 17.4677 25.7854
1 25.1119 10.1913 21.0492
1 28.0716 16.2333 28.5822
1 20.2529 6.8401 14.8444
1 8.10835 20.3187 3.26389
1 26.2608 2.20849 27.5064
1 15.4297 8.70292 29.7852
1 20.1096 11.4168 4.29277
1 17.8211 19.9779 21.792
1 29.0034 27.7127 29.0801
1 26.4852 25.7685 15.9208
1 25.2205 12.8937 25.7004
1 6.62739 23.9396 4.87472
1 8.48797 17.2477 26.3205
1 22.5949 17.3366 15.8871
1 4.08469 0.883375 6.60655
1 10.1924 25.3492 7.47856
1 6.05491 24.2424 15.9859
1 0.500932 0.608852 17.598
1 4.23841 13.7863 29.0298
1 3.3231 26.8561 9.15431
1 18.6744 0.811379 3.64578
1 22.5609 17.1732 3.95049
1 17.4044 25.1433 24.0117
1 19.2025 5.04894 26.7641
1 14.8429 26.4771 9.55168
1 29.3211 10.8951 21.3487
1 21.8216 15.6036 25.2914
1 4.29376 22.9636 7.5043
1 24.1716 21.8075 24.9893
1 24.8339 24.5442 24.7248
1 4.15884 13.8181 7.26459
1 26.2072 29.0788 0.595839
1 27.3322 13.7184 16.4966
1 28.9989 14.4257 14.0972
1 28.3196 8.70376 10.0458
1 23.9609 28.2101 27.8122
1 14.4203 25.9256 2.12915
1 13.2673 14.6991 5.45879
1 15.2553 25.9103 8.2272
1 13.4691 30.0038 19.3618
1 24.9176 3.35561 11.8136
1 14.8377 15.7239 24.5986
1 13.4839 14.0614 10.2693
1 25.0244 23.9719 3.94854
1 18.2358 23.9428 21.154
1 26.5077 21.3347 25.4324
1 26.7965 23.7456 9.64583
1 16.783 26.5725 2.58404
1 1.66499 6.28034 4.19383
1 29.2014 14.1649 29.1029
1 21.6685 8.83441 3.75617
1 24.0912 16.6283 19.5282
1 12.2241 27.8923 3.28285
1 24.8454 18.3037 22.7014
1 4.43043 26.9164 1.57271
1 4.85317 20.9363 0.910362
1 0.421976 12.3291 27.3871
1 9.30166 6.51814 17.8745
1 1.35564 26.464 7.49015
1 27.321 25.8353 1.13836
1 21.1221 19.1731 3.40041
1 27.6594 0.537753 19.3685
1 19.2598 24.9832 15.1422
1 6.4353 15.1645 19.5085
1 23.4813 9.11189 24.991
1 14.7179 12.4783 29.9747
1 10.55 17.4827 17.9265
1 14.18 30.2412 13.6048
1 0.500104 26.9838 25.768
1 26.4719 0.235667 21.1992
1 21.1481 7.18161 21.1892
1 29.7535 14.9655 26.6891
1 14.7865 9.50415 12.7407
1 3.0521 3.76489 2.18893
1 25.9195 26.3598 18.9667
1 14.966 28.2529 2.14781
1 1.45093 2.80514 24.8623
1 12.7975 14.5139 23.0206
1 16.3045 2.43717 30.2138
1 10.7499 11.8614 11.2917
1 17.799 20.8168 12.3757
1 29.7067 20.3614 23.6639
1 5.47558 27.3211 8.86001
1 4.92528 2.61433 3.40584
1 5.92554 16.5896 9.38097
1 12.8057 29.6181 25.5369
1 1.0831 16.6725 24.7149
1 28.8554 28.6274 2.86784
1 11.2482 12.7222 15.5113
1 12.1474 18.5445 3.02247
1 14.9551 24.0173 17.388
1 5.4047 29.5783 4.81048
1 19.0906 0.52132 8.42617
1 17.0152 4.60705 22.7177
1 27.04 29.4828 14.9034
1 8.16157 9.99729 27.3946
1 26.3652 22.2645 6.93534
1 26.526 10.2594 20.9854
1 17.5084 20.618 15.4701
1 12.0425 6.70195 3.22599
1 27.3067 4.8597 10.1627
1 25.6888 19.0193 4.16343
1 22.4528 15.594 22.2716
1 13.5705 26.5677 21.2966
1 21.3958 27.3144 3.03389
1 17.9291 14.131 12.721
1 17.5078 16.1748 28.1237
1 10.0163 1.76391 24.8851
1 9.93157 20.3232 14.2243
1 24.8492 14.2102 22.7921
1 16.615 18.6209 25.0091
1 9.93347 18.4502 16.8369
1 24.7673 0.791835 15.5531
1 10.5491 7.5502 5.80885
1 16.0671 2.07002 21.5957
1 9.0766 1.66409 14.2488
1 25.2027 3.42866 5.8972
1 10.1059 22.9145 3.16903
1 16.2987 12.3375 18.775
1 1.92079 18.73 0.766431
1 16.5936 27.1615 -0.0239389
1 6.67626 26.5657 16.7759
1 10.8017 19.1475 5.41537
1 14.4193 22.4107 26.219
1 29.7938 27.6263 16.5072
1 19.8839 2.88622 0.160045
1 8.46936 3.96523 30.0158
1 5.93459 0.775566 29.625
1 0.683688 3.2141 12.4022
1 10.5533 16.592 6.15875
1 2.63488 27.1642 16.1265
1 0.489914 10.5674 5.21851
1 8.43413 27.0468 15.9912
1 23.1355 9.76051 26.1933
1 14.718 6.34051 11.8211
1 26.5643 16.7208 1.79467
1 12.713 15.9792 19.2678
1 1.88946 10.4849 29.9155
1 12.5095 27.0554 10.5611
1 11.9888 0.0259174 1.66657
1 26.9966 1.89979 19.8437
1 23.1663 1.24217 7.86532
1 20.1718 4.61998 11.5619
1 8.54982 24.2033 8.78092
1 20.1179 22.9041 15.2634
1 14.727 16.1517 11.4189
1 7.58359 4.81156 26.3553
1 14.3349 1.68139 27.0737
1 21.088 26.3787 9.30115
1 21.0257 12.3325 12.5507
1 29.3252 14.3521 11.887
1 2.94895 29.6218 26.3626
1 23.4892 27.0341 9.27317
1 0.506907 21.3433 16.8108
1 15.0749 13.3806 1.89671
1 6.27412 0.296585 23.6319
1 9.00076 10.2826 3.76058
1 4.53516 1.85398 26.9135
1 16.8806 19.3939 15.8779
1 27.1393 8.63072 19.0626
1 1.25202 9.1585 11.1413
1 21.8769 26.8457 27.5121
1 13.5227 25.1011 6.29891
1 2.70133 14.6251 24.7745
1 3.52702 29.2872 9.97038
1 3.45436 17.587 11.6601
1 13.9727 9.41282 3.01967
1 23.9413 8.72605 30.3624
1 8.88285 14.5584 16.6227
1 26.0239 4.70357 30.3534
1 13.3367 7.8693 26.0065
1 23.8808 25.8102 9.59835
1 5.73947 20.749 2.19624
1 18.9335 16.3284 22.2836
1 4.40966 9.44259 10.5249
1 15.4428 6.60098 25.2646
1 29.1134 20.6167 10.2396
1 8.22811 28.4731 27.7401
1 3.2742 24.1943 29.9297
1 11.3115 11.7769 2.88783
1 19.3346 4.82547 5.16657
1 12.4473 12.8436 7.64349
1 17.191 19.5666 12.4509
1 1.9477 17.2232 22.4914
1 20.3439 20.8409 9.17376
1 8.89217 21.9774 17.2983
1 4.06675 4.6655 3.23033
1 29.2699 4.54767 28.5724
1 17.7496 18.5142 12.83
1 5.72981 0.746488 18.6997
1 3.00114 19.6693 26.4518
1 11.7932 24.1864 0.606369
1 22.3205 11.3293 22.6236
1 30.1746 24.8569 7.14409
1 16.2507 5.89274 26.2003
1 6.57461 3.14407 23.3032
1 2.50675 28.4074 14.1282
1 10.2009 24.8317 4.83474
1 9.70162 8.48561 11.5628
1 26.2697 1.74448 17.7195
1 8.44405 4.13571 1.53838
1 13.8663 28.4538 17.7734
1 20.2204 25.1629 27.4616
1 21.7352 17.2855 1.03518
1 29.4117 13.4615 0.955502
1 15.042 5.4668 3.72763
1 13.5465 3.74809 2.16933
1 1.07403 29.8492 17.0638
1 17.7689 11.5298 28.8206
1 14.4073 9.38235 14.2747
1 24.6117 3.49696 7.49757
1 28.1398 8.42984 8.84397
1 20.1829 13.8365 25.8329
1 9.21482 7.7795 16.8272
1 10.9071 2.24584 2.22595
1 20.8883 3.99225 0.651774
1 19.3493 28.5387 8.58441
1 21.0348 1.01644 14.7621
1 20.5363 29.3206 11.0894
1 19.5323 11.9479 28.1686
1 19.6487 7.37542 28.8195
1 19.3457 14.7349 15.6965
1 11.5341 12.9261 0.801467
1 15.0469 9.25226 27.6008
1 28.868 18.6438 7.80688
1 11.6412 13.9185 12.0754
1 4.49683 11.0917 18.3293
1 30.1068 6.59577 27.6713
1 18.819 8.11894 25.0076
1 5.8716 7.63025 23.0876
1 6.02757 14.6731 14.0882
1 2.23655 7.13785 18.4328
1 7.85458 14.2091 25.0033
1 27.4562 12.2237 2.31426
1 7.35562 15.7943 4.86037
1 6.82558 13.8141 21.6501
1 23.3508 5.83221 1.5898
1 8.5481 4.29793 10.3699
1 18.1332 20.4535 9.12053
1 24.3975 13.6697 4.89156
1 13.6778 13.1052 11.3789
1 1.7508 1.58981 6.87201
1 2.89039 29.8646 11.9054
1 0.18862 11.3016 14.161
1 8.49815 7.21066 19.1335
1 24.6677 12.9389 19.3006
1 27.5908 2.32349 4.29944
1 21.7131 17.4818 12.6846
1 24.6991 15.1866 1.35209
1 22.0418 28.883 21.1838
1 1.97286 28.6333 26.1692
1 3.67246 8.28816 19.0084
1 14.6566 17.0709 15.0171
1 1.24742 25.4717 9.50709
1 28.0668 10.6119 12.0829
1 16.5147 17.7197 5.49588
1 7.7997 9.90679 16.4168
1 4.12495 17.0173 8.4423
1 11.609 5.8033 16.1189
1 19.0659 25.4319 12.1677
1 0.491953 7.17045 20.2907
1 4.3781 6.17963 2.90575
1 17.5866 14.2703 14.2408
1 16.7164 11.127 21.7579
1 29.3542 4.31123 21.624
1 30.1995 11.5659 2.99076
1 19.6564 9.8696 26.2197
1 17.397 11.7397 22.7996
1 20.6259 16.0011 7.28442
1 15.4483 25.8388 11.2088
1 1.53769 17.3823 28.2392
1 5.89242 4.78871 12.5935
1 8.77978 9.48909 28.6867
1 21.3754 1.09551 26.8946
1 0.333963 3.13525 7.81781
1 22.9331 14.8974 10.2185
1 17.1683 23.4324 26.7485
1 5.48187 24.1316 20.318
1 4.57815 29.7408 0.634916
1 2.55665 28.2225 19.9129
1 3.12923 1.59309 25.9998
1 27.7288 12.9263 25.5309
1 2.22267 10.3155 7.23265
1 7.6558 25.5711 7.03941
1 15.9391 24.3769 26.8277
1 5.21046 21.1272 12.0593
1 26.6956 0.64911 22.658
1 11.5044 18.2826 7.88845
1 27.0589 14.0623 19.2611
1 4.8512 25.3496 3.77848
1 10.0082 26.9982 21.7859
1 10.0126 15.0169 0.985195
1 12.0002 28.7384 8.01722
1 6.27508 29.4712 20.4121
1 22.4165 29.9973 3.43116
1 27.0922 9.70971 23.5057
1 22.7606 19.5858 22.282
1 15.9181 24.3252 10.9282
1 24.897 2.03975 21.4161
1 23.3434 14.5991 15.759
1 8.79916 20.5155 7.63363
1 19.4026 15.2356 4.3084
1 0.789734 16.9579 30.4064
1 10.408 17.0812 27.5111
1 13.7521 8.30704 24.9279
1 23.9017 20.1781 22.0449
1 7.80464 21.4046 5.59806
1 10.5146 12.2056 0.415188
1 4.22684 24.4331 9.3579
1 24.1585 13.8671 25.6958
1 28.3987 18.637 29.0514
1 1.52713 11.135 18.6388
1 28.5952 7.27849 0.992847
1 11.186 26.1948 10.9891
1 1.50291 14.9184 29.8848
1 24.9502 4.12955 2.58433
1 29.4277 9.05747 7.87355
1 3.85047 2.37618 23.9635
1 10.4056 5.21064 7.69125
1 27.8695 25.8972 12.7662
1 11.1883 13.995 6.87904
1 30.0367 6.99134 0.813507
1 23.8561 23.8602 3.64553
1 18.7971 12.3843 22.9517
1 3.52358 12.6966 29.7635
1 20.5989 15.7678 19.4011
1 9.5334 20.6061 3.06279
1 6.95363 29.727 10.6939
1 9.20192 22.3836 15.0772
1 11.7672 20.0646 30.4726
1 5.49685 15.0285 0.818884
1 2.90688 2.60597 2.83151
1 30.285 30.3376 19.2072
1 9.00593 20.5825 16.9763
1 6.68913 15.7761 11.9919
1 6.69734 5.55756 18.2293
1 8.69384 16.3832 30.0063
1 25.4045 6.05179 19.768
1 29.1806 3.77492 13.9016
1 8.71973 1.25218 29.9451
1 1.083 11.6879 11.5517
1 14.1627 20.4069 29.9215
1 11.0207 18.6847 15.6041
1 17.0102 15.1742 24.8394
1 22.6485 21.2405 9.69262
1 2.2583 5.97576 15.0816
1 15.3818 23.383 29.2772
1 24.0862 14.1295 19.2127
1 10.9127 26.3233 18.6433
1 13.13 18.6098 20.9499
1 13.9663 6.39207 17.6014
1 24.9085 18.2556 16.3706
1 14.7394 9.58718 18.57
1 24.8917 8.01615 29.5079
1 15.0908 10.2034 25.6595
1 24.6458 23.7532 28.1357
1 7.77662 25.2913 18.3823
1 25.9161 12.6165 19.045
1 25.5748 30.1546 28.0102
1 1.35363 17.1597 6.20023
1 25.3902 6.95318 1.22684
1 9.2125 24.3358 13.6285
1 16.6325 5.35752 8.40566
1 4.50992 22.2923 26.146
1 25.7332 2.01426 12.4375
1 30.3314 21.8412 28.9259
1 24.1246 24.5177 15.2815
1 7.97456 27.434 10.2732
1 12.3936 27.1214 26.1692
1 19.1747 2.25115 14.9445
1 8.25332 18.4892 8.60692
1 5.29545 16.0736 28.3123
1 25.1223 30.3887 24.3532
1 9.44068 20.0879 11.7918
1 27.7569 22.2974 7.00508
1 12.9683 12.5004 4.82663
1 17.1327 24.359 11.3352
1 9.56339 5.07733 17.6482
1 8.11511 18.922 6.22313
1 15.7196 14.6498 1.42328
1 28.2254 1.093 25.4799
1 22.9213 2.69699 25.1521
1 24.4446 16.0024 4.43922
1 15.7946 4.02239 6.41516
1 24.3784 5.97762 18.8959
1 0.533151 3.77604 21.0576
1 29.605 9.44732 3.53319
1 14.1058 5.97518 4.62507
1 20.3249 29.3544 -0.128808
1 23.5778 11.1896 26.1105
1 24.502 17.3268 28.533
1 21.8308 14.5562 12.8026
1 28.403 15.2923 8.12946
1 14.1085 22.5619 0.971166
1 27.7722 26.9869 28.3222
1 2.47176 9.26903 22.5137
1 5.65151 24.5231 24.8931
1 16.9646 16.374 0.176754
1 20.8588 10.2906 25.8647
1 20.092 8.17381 20.5681
1 6.92819 12.3524 23.5301
1 16.1366 12.5923 15.9087
1 4.78581 8.68194 17.7882
1 10.7548 24.854 3.66389
1 6.58665 15.3609 17.9471
1 8.57354 16.05 13.2628
1 25.6808 26.5387 21.9542
1 26.1602 13.0742 28.7073
1 24.5142 11.0467 6.42431
1 5.75556 2.29647 29.156
1 22.0009 26.8518 6.54248
1 21.8351 22.005 27.5926
1 12.9268 19.0958 26.6175
1 15.4298 20.3919 27.982
1 18.3166 20.6685 18.5458
1 14.0557 21.6519 3.7029
1 3.30237 8.28529 3.11909
1 1.99885 30.2093 29.4931
1 20.0656 22.0221 9.26174
1 14.5023 3.79922 23.8748
1 26.8197 19.0176 16.4346
1 10.1971 30.4821 10.7223
1 19.9297 20.3134 27.7387
1 10.4444 29.109 3.91109
1 6.32494 27.451 14.6134
1 21.2709 10.0395 14.2487
1 8.06389 30.2884 6.15019
1 14.7561 25.2819 23.565
1 12.7335 15.3201 14.6502
1 15.6574 26.7503 26.9778
1 13.3804 2.64824 7.64429
1 3.48129 24.2505 22.072
1 2.87277 11.9722 1.54018
1 4.28029 13.6389 3.84391
1 9.24854 24.236 7.47016
1 1.21282 23.9371 28.2559
1 26.5336 5.74959 20.653
1 2.26958 11.4975 22.5387
1 18.0302 18.4656 1.89896
1 3.58729 10.5944 17.0539
1 11.3759 6.4751 9.84514
1 10.1667 5.28823 22.0912
1 4.08466 21.9449 23.7734
1 4.53779 14.4312 8.70747
1 16.2371 11.2568 10.5199
1 0.282544 27.2492 13.8338
1 0.87567 1.06473 18.7939
1 8.70289 15.7144 19.8
1 21.5696 20.5252 6.62212
1 29.3058 24.527 9.69718
1 3.62373 4.77202 4.70236
1 29.6572 26.1139 0.559522
1 1.35035 8.15768 4.35537
1 15.0859 21.9551 18.6612
1 20.5042 14.7346 1.7051
1 15.6057 14.6169 18.727
1 22.5356 20.3319 18.5666
1 8.7944 3.97157 23.5945
1 7.07389 18.4998 1.04191
1 3.89644 3.98769 14.0248
1 8.6153 4.52651 16.6514
1 29.123 0.927908 0.578375
1 12.2754 3.81983 8.03689
1 29.2739 24.3784 4.01169
1 5.33845 6.2995 6.17715
1 7.51591 9.36641 19.4248
1 8.003 19.8992 22.8838
1 18.478 7.0179 25.8314
1 18.182 22.6426 21.0372
1 18.0791 27.238 27.2162
1 29.5739 10.111 27.0267
1 26.1231 21.7273 12.5016
1 2.4541 7.02913 23.1438
1 29.7171 17.8024 14.2785
1 8.93483 8.70332 26.3581
1 12.4723 6.02178 2.14561
1 7.57828 11.1847 21.141
1 19.7526 11.5511 22.904
1 26.7718 29.4014 28.1314
1 3.15505 10.7977 12.5935
1 18.2827 28.7471 11.9693
1 18.7183 30.433 17.5999
1 12.5055 27.4335 21.6333
1 2.644 0.5844 26.8079
1 24.5273 6.59147 16.3373
1 19.0043 8.49403 18.005
1 23.7747 4.35635 1.94212
1 5.17804 5.88772 30.4909
1 26.7551 15.0416 25.2316
1 24.9124 5.78849 22.5385
1 15.0596 7.40369 -0.0267633
1 1.47534 6.5416 1.63714
1 5.86265 13.0857 17.1091
1 17.3908 22.0753 2.82021
1 13.4314 4.36144 23.0689
1 12.4176 21.9111 16.5116
1 17.7405 20.1481 0.0822316
1 18.6223 22.782 8.89807
1 11.446 19.0559 19.2534
1 1.60266 12.8038 7.5288
1 8.11 18.1532 7.23291
1 29.3874 3.85558 1.3125
1 29.409 3.76321 19.3403
1 20.7738 2.902 16.662
1 18.3544 10.7732 25.7929
1 28.2012 19.765 4.34117
1 1.18688 24.746 10.7426
1 2.68434 1.06495 5.92804
1 10.2669 15.0489 21.978
1 2.37093 6.11065 8.19555
1 11.4996 26.9237 0.921566
1 5.80082 21.9997 11.0805
1 8.19028 5.5361 25.2422
1 13.6221 13.4087 7.06999
1 25.5424 15.6618 25.1327
1 12.3753 6.2098 29.7404
1 6.16649 19.2497 30.591
1 26.0438 30.0855 11.4316
1 6.10892 1.59771 22.8297
1 10.8609 6.1582 5.74821
1 12.7669 22.8046 17.5957
1 19.0479 30.1602 6.23406
1 17.2715 10.2285 18.3387
1 24.3921 27.6898 0.241905
1 27.9452 5.33848 19.8016
1 15.6264 23.9257 14.5581
1 8.94048 26.5618 29.8245
1 2.19812 24.0094 4.66375
1 23.4638 24.8868 0.368223
1 2.89781 17.8897 23.2175
1 25.4382 0.861924 23.3056
1 2.5726 24.4953 20.73
1 19.9181 21.6731 12.3366
1 7.62912 13.5675 4.3028
1 9.28146 9.85315 11.1083
1 3.07023 24.4357 26.4646
1 2.77021 16.5248 28.6794
1 9.00667 11.3016 28.3484
1 21.1175 0.444848 23.3405
1 25.2706 30.1086 3.83388
1 2.5112 4.5177 26.27
1 2.0898 30.0487 4.75698
1 10.7149 27.1681 14.9346
1 7.24415 22.9677 24.1309
1 17.6536 28.9093 -0.280473
1 19.2836 12.3231 9.66559
1 8.00211 20.0906 16.1889
1 18.3758 1.78661 8.6674
1 10.9846 5.45106 1.64874
1 23.0471 7.94583 12.9071
1 22.3046 4.51951 20.2028
1 27.5418 23.4724 1.33246
1 28.2447 11.47 15.2623
1 13.4785 3.52139 5.68963
1 1.08112 18.9087 18.8747
1 5.36998 29.4461 28.2226
1 8.2575 22.771 5.96746
1 2.23411 20.1195 17.1309
1 23.8449 29.0086 16.559
1 12.3898 11.7974 6.86208
1 0.790681 23.8175 22.2854
1 17.61 17.7212 6.25562
1 18.6536 18.2467 28.3114
1 24.6064 0.879982 22.1698
1 10.8293 5.39089 27.697
1 2.03003 24.9704 15.5322
1 13.3314 12.0018 25.9458
1 18.9042 24.6784 24.0356
1 11.2908 26.2437 23.6097
1 22.6527 22.5927 15.5861
1 30.5232 16.534 8.21431
1 25.8269 29.5925 7.0793
1 26.0213 21.6335 1.18934
1 0.821648 12.7573 28.6996
1 19.9428 9.72167 27.7546
1 19.8554 5.8971 24.2893
1 12.1185 1.52255 2.05117
1 4.55417 29.3826 24.7637
1 28.1267 9.21674 23.999
1 4.77822 5.09532 5.6441
1 30.2649 9.42675 12.1427
1 24.4563 28.6179 12.7745
1 28.5692 29.1183 11.5715
1 16.6503 25.6654 8.05386
1 1.61186 15.276 19.478
1 20.8193 1.36885 24.1643
1 24.5856 6.48558 25.3599
1 12.0014 10.488 28.907
1 8.08578 18.3533 28.4981
1 21.3413 6.74565 8.52374
1 7.42589 27.4731 21.4909
1 0.777819 20.4789 26.9296
1 8.16781 16.0914 22.0604
1 26.4083 1.44093 9.02568
1 8.08682 5.43721 3.96438
1 27.4137 6.44072 12.2147
1 23.46 21.5808 18.272
1 18.2016 2.59628 22.861
1 8.99309 2.66497 26.8135
1 19.1974 2.5691 20.8565
1 4.9325 22.5756 28.4364
1 17.0932 12.1971 8.61865
1 5.61475 6.76155 3.38938
1 9.85642 16.672 9.59497
1 5.44379 28.4662 20.1176
1 18.1502 6.68984 19.7573
1 17.7541 13.6316 7.93933
1 1.63355 18.7337 28.8872
1 2.28766 7.79961 11.211
1 18.4238 2.80873 18.6858
1 29.0771 3.37358 18.0302
1 0.169401 14.8571 18.909
1 3.25646 16.9359 25.3399
1 12.0468 10.2234 7.12914
1 9.84994 3.14981 12.8513
1 2.59358 14.5956 5.63327
1 2.5838 26.4859 12.7976
1 3.41695 20.435 16.1913
1 23.942 7.03316 12.3152
1 26.049 12.1209 22.7362
1 0.473337 2.99981 28.2699
1 4.70813 26.9475 12.5868
1 10.0466 27.1013 9.15083
1 9.00563 23.5995 21.7948
1 29.6771 13.9956 20.0008
1 18.4293 12.4677 20.3013
1 6.50778 12.4471 25.809
1 5.42754 6.1461 18.4497
1 14.5737 29.8304 21.4766
1 26.4832 16.4206 17.1598
1 13.2211 21.179 13.3026
1 4.81007 13.0542 19.386
1 17.1911 20.8457 2.60447
1 14.0958 26.5958 12.6172
1 11.154 9.20548 19.1748
1 13.7374 0.0290521 22.3514
1 2.32884 27.4186 11.6861
1 17.933 14.3849 25.1937
1 12.1198 2.6086 17.2201
1 5.48573 27.4775 10.3787
1 0.461141 18.0884 17.9646
1 29.898 22.396 1.4794
1 1.22324 3.7571 17.6073
1 13.0231 19.3641 11.7035
1 17.0426 3.34087 16.8263
1 13.0046 10.0994 8.38025
1 12.9218 7.73899 21.5916
1 16.526 25.6123 26.9286
1 24.1288 14.4562 10.1871
1 13.6893 3.40084 28.6791
1 29.3242 27.0029 25.7764
1 29.9184 1.46776 23.977
1 12.0362 2.59906 14.2219
1 9.6864 1.61327 28.9748
1 23.8499 28.1912 6.68908