4096
Atoms. Timestep: 940
1 9.7835 16.6407 15.5075
1 21.5044 29.3628 10.3733
1 16.7735 21.4439 24.1689
1 17.8312 14.7721 16.1466
1 29.3969 29.0404 13.7265
1 8.78096 3.38586 20.0596
1 22.8365 17.0986 19.395
1 19.5774 21.2456 25.0178
1 1.36981 10.2196 13.82
1 10.146 12.947 10.9182
1 6.62629 11.7407 12.8619
1 2.99436 2.13328 18.4326
1 15.1565 14.7037 9.33866
1 18.8669 0.690101 10.0358
1 29.2228 19.4166 1.08929
1 3.01286 26.9457 20.7494
1 19.0478 27.3654 0.428471
1 0.868342 25.2627 8.73102
1 22.3268 28.3365 8.41415
1 23.3576 5.61364 18.4461
1 10.7218 7.56845 14.7026
1 28.729 3.15847 27.3202
1 24.4359 2.1817 1.95384
1 12.3209 26.9689 12.1241
1 0.877398 13.1854 5.00484
1 27.929 8.6585 10.0972
1 22.2093 6.96066 15.9838
1 25.3372 28.6735 9.24973
1 16.5486 28.4953 4.63194
1 28.1389 6.2226 21.8076
1 28.8352 18.944 9.04621
1 29.0975 0.89332 1.38926
1 16.1974 8.84344 6.57133
1 29.9305 8.06593 15.9527
1 15.8986 6.24558 26.1175
1 0.508584 10.7641 30.2489
1 18.3056 14.6834 10.9372
1 28.2585 24.4689 24.6354
1 25.1979 30.329 3.46003
1 26.7636 9.46837 10.934
1 2.37048 20.0297 5.71374
1 16.5802 16.4914 25.3651
1 9.93918 5.5427 6.40267
1 15.1886 25.5532 29.7258
1 14.117 17.2727 18.815
1 2.53631 14.0299 25.0445
1 8.59856 29.1833 29.7254
1 16.8725 3.13117 2.99412
1 1.19952 16.7833 9.77716
1 25.8241 11.2767 24.8184
1 9.85895 14.2992 26.9657
1 25.297 14.3049 12.6814
1 3.50821 12.8841 10.9052
1 10.4169 25.2355 10.1314
1 27.43 0.124663 15.2297
1 20.9599 8.29741 3.20726
1 2.60909 16.0868 27.7811
1 11.0562 22.006 8.77849
1 26.1563 29.8365 19.9714
1 26.5492 5.47266 27.7529
1 4.18723 3.20266 13.2591
1 19.2472 13.503 29.7826
1 8.68031 1.8619 20.5332
1 20.3174 22.4397 9.0347
1 27.8601 4.13815 20.2841
1 13.144 21.4147 26.3287
1 17.7466 20.4369 8.15467
1 23.7024 17.5538 9.25907
1 24.6155 10.603 30.053
1 11.5499 28.2912 9.85488
1 28.5535 10.7345 26.9679
1 1.26378 28.0044 6.3027
1 29.4326 21.6437 2.16588
1 3.30315 10.5773 4.55373
1 25.9498 18.57 10.3689
1 16.1203 8.50137 15.2593
1 25.7299 3.89521 12.4493
1 20.9793 21.7712 14.3008
1 4.99058 7.09084 11.395
1 5.64923 8.6736 24.0213
1 9.63237 0.870799 4.58039
1 13.148 24.5618 10.8859
1 0.144894 25.3582 2.26059
1 17.6661 0.620799 8.87528
1 16.5982 1.80598 16.6552
1 15.2881 12.1924 12.7353
1 21.497 9.00406 19.7496
1 24.7369 20.6251 21.1021
1 1.76803 29.3454 20.4016
1 2.93093 0.847937 6.72455
1 29.729 29.659 4.93
1 10.96 12.378 17.2473
1 23.0852 19.5462 18.8706
1 5.37769 1.72116 27.9897
1 15.0792 3.08904 8.24786
1 5.92046 12.2601 9.73324
1 14.4987 18.6142 16.6058
1 25.035 15.3901 19.4919
1 25.6824 24.1088 29.322
1 10.1891 23.2345 8.39393
1 23.8767 19.7431 12.779
1 17.5019 12.1982 23.8785
1 16.8948 28.5061 17.5421
1 10.2822 15.6365 20.8013
1 30.2608 8.36887 23.0297
1 1.6961 8.19319 29.3348
1 26.2531 13.6118 24.8819
1 20.3627 17.8795 25.3313
1 4.39101 19.9048 11.4071
1 20.2955 19.4489 13.4814
1 26.3851 24.933 9.3849
1 10.1794 20.6428 22.4608
1 15.5747 10.7276 28.1691
1 5.12034 11.309 28.1098
1 11.3963 4.66757 25.0491
1 20.9136 18.4202 3.80109
1 23.5221 3.63598 28.9872
1 16.7761 0.565825 1.67081
1 13.4738 14.3591 4.25412
1 17.7413 16.5727 4.77837
1 5.83129 27.1879 18.8959
1 6.67524 7.13706 20.779
1 1.91234 18.0604 25.2998
1 11.7589 2.46628 2.97813
1 9.48868 23.9468 23.248
1 14.8023 14.2314 11.5841
1 7.35224 5.09328 30.9273
1 9.19555 4.11291 24.1811
1 25.2419 17.4671 30.1338
1 21.4416 28.2698 14.0574
1 5.69653 25.8954 11.0076
1 22.7852 -0.135062 3.38749
1 19.9638 5.43369 18.3924
1 10.1877 2.72649 6.01716
1 20.3356 13.9297 18.6554
1 8.97542 0.20108 22.3762
1 3.24755 13.9746 30.0701
1 10.0309 16.7137 25.3269
1 22.2636 7.99989 6.43328
1 17.2008 27.8998 11.1777
1 15.2418 17.5344 11.1318
1 1.99862 21.6766 26.1864
1 19.3446 7.85024 18.2149
1 17.2276 29.5607 22.9221
1 14.3185 14.5852 26.7871
1 5.47909 2.15321 19.8327
1 9.95845 23.0386 24.4936
1 11.018 15.7632 6.56378
1 13.178 29.6199 5.76997
1 12.1175 29.4026 1.15168
1 28.4082 3.73441 25.7704
1 9.66123 28.938 0.751313
1 15.8893 29.4634 22.3491
1 23.8157 7.31564 9.9171
1 15.4052 13.2859 17.4793
1 7.20063 17.027 17.8741
1 3.20498 8.54006 0.794928
1 26.7627 7.87138 26.8694
1 20.1844 11.6278 16.1974
1 14.8212 3.82292 26.9901
1 13.9044 10.9185 8.85289
1 0.749058 12.5482 7.99075
1 8.82184 23.3921 18.6515
1 1.99077 14.9098 25.8618
1 23.1335 29.0714 26.0618
1 12.3484 26.6758 1.15442
1 28.104 1.08311 7.5447
1 21.0719 15.6046 3.40775
1 26.1083 10.986 4.11953
1 26.8625 15.8824 22.838
1 22.2911 1.29708 9.48733
1 27.069 16.604 2.45289
1 13.7448 12.4698 2.94861
1 4.238 7.69557 25.6076
1 21.1848 0.430607 8.68679
1 8.12475 13.2018 26.3102
1 23.1582 18.5241 10.8398
1 18.9733 15.5433 22.2932
1 8.26468 23.7061 0.920168
1 28.7943 20.3011 8.43151
1 3.37486 25.5606 17.0356
1 23.3195 27.4878 20.5837
1 15.9338 14.6347 21.023
1 24.0469 25.1773 11.1545
1 14.4612 16.9317 0.51156
1 22.4493 9.10417 7.2799
1 25.9118 22.74 14.9107
1 23.504 23.9931 14.9396
1 2.6395 4.28103 6.88711
1 22.0897 2.17105 24.7409
1 20.8896 10.1075 24.8927
1 5.92962 13.1081 4.29956
1 19.2611 13.34 14.453
1 24.478 4.76872 28.5613
1 21.8794 18.1668 25.6141
1 3.54351 14.9586 14.5566
1 26.3139 11.0115 22.4963
1 10.3866 13.4696 12.1685
1 10.4127 12.4727 8.49691
1 6.70142 16.2913 8.40203
1 14.7055 16.6744 12.44
1 3.10599 21.7576 27.1042
1 15.6853 11.4457 26.1024
1 10.5283 5.34095 28.2184
1 0.706155 3.57263 25.7548
1 11.3454 8.57989 12.4696
1 21.3454 26.6036 29.9224
1 17.1516 15.5138 7.09105
1 0.961368 16.4242 16.2779
1 26.4847 22.4978 1.18921
1 26.7535 9.61286 14.0578
1 14.4082 24.9907 18.8499
1 8.54009 0.136915 3.89534
1 28.0773 25.0062 17.3243
1 10.8029 14.6078 4.65582
1 28.9603 1.83361 8.77297
1 9.33602 14.2171 17.6771
1 3.43911 15.4328 16.9935
1 17.8704 25.7647 10.1409
1 11.6782 26.3397 13.3343
1 15.4686 4.73241 19.4408
1 7.82928 13.6957 30.3445
1 17.2086 21.0546 15.1066
1 0.461293 5.75173 12.1491
1 7.73389 15.8267 1.10398
1 7.74367 13.8057 24.9831
1 22.5973 20.9902 25.1737
1 7.63412 20.2923 19.8747
1 21.0931 12.5719 2.46615
1 3.70046 4.82859 18.0988
1 15.9304 29.7537 11.3896
1 23.5497 2.45059 6.99977
1 16.3017 21.8987 5.0265
1 21.4929 12.7977 20.4338
1 7.88973 1.41164 11.3138
1 22.4242 4.85288 1.92508
1 7.11096 26.8175 2.27984
1 6.99631 21.5036 24.8731
1 8.15928 27.8042 8.49736
1 25.6493 6.17161 25.6687
1 3.5447 27.2987 14.0632
1 23.296 13.3005 6.72044
1 20.049 20.7327 20.1751
1 11.0856 0.45759 23.5108
1 5.2395 7.99944 16.9579
1 17.8366 13.4207 5.67528
1 25.3293 16.4022 14.2206
1 27.0049 11.169 18.6651
1 2.44412 7.05507 8.9287
1 7.36905 1.41056 18.4224
1 4.8154 7.34024 6.59813
1 7.11835 14.3071 18.135
1 16.2149 25.0603 6.84896
1 24.219 7.14285 25.1445
1 28.39 26.0769 9.45545
1 16.274 29.3423 14.2615
1 2.83104 29.646 26.8718
1 25.1958 13.0964 15.1791
1 7.88253 28.6281 11.7897
1 22.2642 12.3242 14.4233
1 18.0141 13.2618 8.73927
1 24.9718 12.8496 3.63665
1 22.1649 27.4466 7.40934
1 10.3825 0.0134175 17.9643
1 20.2048 26.8676 10.1965
1 5.37165 2.68539 10.768
1 13.2078 29.2544 8.41619
1 7.68221 18.7779 3.72773
1 20.8952 1.30819 5.30439
1 13.0975 22.137 28.6968
1 2.54084 9.98765 15.3725
1 9.44621 27.8049 16.7968
1 6.91072 6.28468 2.87796
1 20.1358 6.59599 10.8108
1 4.37565 5.8995 27.9461
1 21.7081 10.7112 27.0182
1 12.3134 13.1065 15.4903
1 17.0067 12.7622 11.775
1 10.7881 19.6593 9.98499
1 21.2621 21.3127 23.3817
1 10.2653 14.7043 7.37918
1 13.6752 12.2649 12.3376
1 27.8151 10.4043 13.5292
1 28.6774 10.2169 15.6824
1 1.58483 5.96553 1.70086
1 25.6188 28.7345 16.4074
1 15.2956 22.6208 14.7623
1 6.06545 21.3341 6.87267
1 5.40861 24.8693 13.1316
1 19.9499 25.2515 1.29516
1 27.7519 2.44398 10.4715
1 7.12027 29.0429 25.6876
1 14.7375 15.2382 2.22525
1 2.8683 11.2751 21.5746
1 19.7572 30.691 16.2792
1 27.1739 5.40508 8.96008
1 23.6721 1.14644 18.7141
1 22.0331 15.937 26.6252
1 12.9261 22.1096 1.34346
1 29.3349 10.7213 22.762
1 0.328384 22.179 27.8452
1 0.807337 12.6025 25.2693
1 8.37006 16.0331 6.58705
1 12.3306 17.2536 20.221
1 19.3909 5.43076 27.8745
1 4.24699 17.9719 21.2938
1 23.1832 17.2759 14.0779
1 15.4336 18.121 1.67959
1 23.7229 0.453828 23.5267
1 27.8277 4.02953 6.51427
1 21.3009 17.6744 12.3086
1 1.04833 19.29 3.90089
1 28.9958 1.2142 12.8258
1 4.63102 25.4127 0.738133
1 0.306585 12.134 12.7432
1 24.1908 28.0445 26.2679
1 10.2452 3.31655 13.7524
1 7.51112 10.8831 12.6697
1 16.4223 26.3913 24.7922
1 6.70772 21.0878 3.53123
1 9.75431 16.6105 14.0536
1 9.85156 15.1229 11.2835
1 17.0274 16.8953 21.5222
1 7.74513 1.83107 5.27675
1 13.5041 19.8573 7.05448
1 22.078 15.4534 1.16835
1 30.1195 15.3058 4.6191
1 4.49203 10.8614 7.43951
1 29.9143 24.7657 15.873
1 22.1287 11.7638 3.94516
1 24.1894 24.6433 27.4326
1 24.7169 29.0839 29.8431
1 3.57618 18.1723 0.548218
1 16.8904 13.6138 29.367
1 20.1507 8.99466 7.47301
1 24.5787 24.2961 18.7741
1 1.70489 23.9833 21.6782
1 26.0257 25.1375 7.98122
1 6.44208 5.2815 29.8725
1 8.54081 13.797 20.0104
1 2.92485 27.8128 23.4827
1 13.9735 27.2672 24.0289
1 11.3561 17.7123 19.7221
1 25.0907 25.3545 14.611
1 12.7614 3.23866 26.5323
1 23.5639 22.113 16.6918
1 25.6678 19.2639 11.4831
1 14.372 28.3765 16.4707
1 29.5748 14.8447 29.3745
1 29.8487 18.656 27.8145
1 1.91401 5.59498 24.8876
1 3.62905 1.32109 17.4567
1 4.27729 4.37643 12.8986
1 28.9287 0.733624 26.0828
1 5.57821 11.0922 24.6525
1 0.872536 11.9105 19.8881
1 5.23305 28.8621 15.07
1 3.21799 4.51334 3.68186
1 10.3377 0.900001 0.600242
1 24.9071 7.61512 7.29872
1 9.20708 21.6518 17.5251
1 19.681 1.29379 3.36693
1 3.48696 6.01465 26.8809
1 24.0285 13.6553 26.9154
1 14.6004 17.4274 13.7752
1 9.1691 22.4748 20.7008
1 3.94942 24.165 5.55191
1 0.169246 8.32132 2.97801
1 8.66143 14.9212 24.424
1 1.0619 6.7134 8.61637
1 11.7693 25.5591 9.33912
1 24.5334 29.3481 6.395
1 8.17065 12.4056 7.02131
1 15.0922 30.345 4.41888
1 27.8026 11.8834 10.6308
1 9.40431 26.3684 3.1607
1 0.565318 13.327 6.71243
1 14.1367 25.8298 24.1314
1 26.7848 18.0097 8.31756
1 18.3578 6.04096 13.1726
1 29.0826 12.0897 3.89678
1 16.8471 6.77639 4.95439
1 24.6179 15.384 13.4791
1 24.8576 23.6295 12.9938
1 22.1723 7.43827 29.1117
1 13.591 10.9429 19.153
1 27.0069 28.2773 28.3514
1 2.45445 23.4527 7.38488
1 26.4907 13.6401 18.3088
1 29.3438 25.7464 4.58178
1 20.0069 28.3516 10.4646
1 23.4294 11.2782 7.88629
1 2.38775 21.1639 18.7901
1 10.9528 0.194865 27.0158
1 22.5486 15.5913 7.99537
1 14.271 29.9697 1.49784
1 0.670553 16.3883 8.35049
1 24.9903 17.4036 10.1733
1 4.01177 14.3669 25.2709
1 24.9062 23.4346 1.44168
1 11.4845 2.17751 18.7931
1 27.9339 1.05817 23.864
1 23.3701 11.3459 24.5967
1 18.6702 29.8783 11.4193
1 25.4682 30.2192 12.0486
1 9.75394 4.08251 6.807
1 4.54084 21.5748 2.34078
1 20.8198 4.29849 24.5992
1 3.63588 5.33122 4.68543
1 17.3322 28.3274 14.0439
1 10.6433 9.90386 22.6191
1 1.35738 27.9384 28.6305
1 2.53536 10.3316 27.7865
1 1.70069 22.5964 16.9088
1 16.6103 25.2126 27.511
1 1.91782 10.4119 1.86284
1 0.691841 2.52272 10.8012
1 7.13572 26.4714 24.5278
1 26.6626 13.2072 20.9311
1 7.01028 13.2221 13.0835
1 17.1424 13.8578 6.81805
1 10.0614 3.05165 28.8123
1 9.98056 8.00085 19.6851
1 7.46969 6.78604 21.8056
1 7.03405 7.5471 8.23744
1 1.40312 22.6239 9.39246
1 30.0813 15.0237 10.3803
1 8.53643 22.5817 24.9773
1 19.26 16.3091 18.4133
1 4.69846 20.03 13.48
1 28.074 26.0107 16.5035
1 12.1396 1.55358 15.8618
1 3.0909 11.2843 25.0483
1 28.5129 11.016 4.81786
1 4.17088 15.752 19.3408
1 28.5163 24.6157 29.7424
1 14.3113 24.64 28.3532
1 12.3958 24.3803 25.2083
1 28.9943 2.87542 22.6086
1 12.6222 15.5662 18.3028
1 6.88741 28.5504 4.15257
1 8.4525 5.79343 0.621707
1 9.99953 27.6958 11.745
1 21.5991 19.2433 26.4836
1 7.11542 7.40058 29.7969
1 25.1353 15.6362 20.9829
1 2.64559 16.1903 21.8195
1 2.48684 28.0254 13.0824
1 18.7756 9.99162 12.8459
1 20.3641 22.6404 5.28962
1 29.7165 27.7816 3.2192
1 22.7636 27.6148 28.0236
1 13.9837 0.964704 12.3194
1 13.7212 16.9939 20.2337
1 9.1913 9.6943 20.6492
1 27.9921 22.1872 7.42546
1 14.3463 16.9097 26.5354
1 16.2889 23.637 17.0207
1 27.1063 15.9251 18.8691
1 16.6664 4.50306 10.5575
1 3.96844 0.513974 9.22441
1 4.05077 10.2883 9.95485
1 26.7518 20.0922 1.93529
1 21.3099 1.3765 11.8778
1 24.8665 23.3393 23.4515
1 25.7348 10.6582 21.5016
1 8.9247 2.38698 28.9187
1 14.1683 2.2889 3.93939
1 10.7194 26.8074 3.0684
1 15.4911 19.1267 19.0572
1 22.9134 19.7244 13.6704
1 7.33701 14.0594 4.33782
1 1.83468 28.7838 15.7451
1 26.4384 21.8396 22.43
1 10.1328 27.213 18.1061
1 25.0948 1.48625 18.8567
1 0.302542 3.06455 5.34005
1 29.5179 17.0305 21.6181
1 1.92802 25.1063 19.8379
1 0.714418 18.1877 12.2048
1 2.03066 17.3944 4.99071
1 12.2572 22.0324 16.0506
1 18.0623 28.7209 2.4091
1 19.5597 3.74735 21.3201
1 25.9645 29.3928 23.9543
1 3.31963 4.67038 22.1799
1 21.9552 19.0097 6.74164
1 19.2927 3.35246 19.6947
1 2.13819 -0.168979 4.52639
1 15.3277 22.2862 17.4745
1 25.6268 26.5451 28.6426
1 20.445 28.4535 23.522
1 13.7183 7.3148 15.2383
1 11.1765 17.6935 22.5017
1 22.2227 1.16305 7.97381
1 16.1901 23.6458 15.3565
1 11.413 26.071 0.0624271
1 0.0490961 24.1311 5.29989
1 5.17995 2.92624 5.32006
1 13.1403 14.4959 20.4555
1 19.0507 26.1198 7.21444
1 17.8863 26.7889 6.76785
1 14.4393 20.6904 3.88575
1 0.261373 1.96597 23.8726
1 20.8236 24.649 9.04953
1 15.3491 7.30341 1.17051
1 11.0997 10.5367 29.0144
1 18.0202 7.90255 11.444
1 15.6127 9.19975 29.2475
1 14.1546 9.47839 19.2981
1 10.1631 11.9083 20.8957
1 23.6406 20.578 21.9986
1 13.5438 9.39592 13.2296
1 3.57241 29.4911 9.82222
1 2.68307 17.1717 28.6935
1 4.51455 29.7548 28.6741
1 21.9014 29.0152 28.3747
1 17.868 21.7489 25.1843
1 13.3827 12.322 8.83517
1 12.5272 19.3306 4.60453
1 20.707 19.9033 19.3204
1 4.23219 26.9229 9.03759
1 17.1707 8.54113 14.2716
1 28.7691 15.5744 3.97409
1 12.8617 29.5471 11.3709
1 18.874 7.69743 0.319529
1 18.9132 4.93085 4.45963
1 29.3833 29.4646 7.2556
1 8.31034 28.6063 17.3197
1 23.8257 28.0838 23.1648
1 25.9737 2.71598 23.8942
1 17.427 11.4384 2.73175
1 16.6686 6.31668 8.71341
1 0.906887 4.71432 2.52502
1 24.2198 2.75717 8.15099
1 22.5088 26.0572 7.56144
1 15.1858 19.0581 7.02186
1 14.8086 24.4596 17.4132
1 4.68032 20.1684 2.99824
1 0.599543 19.7197 12.7583
1 0.269066 23.802 28.1156
1 7.8497 7.90603 5.21323
1 15.3874 21.9807 3.65767
1 15.8789 23.1739 22.7891
1 14.6523 10.4621 21.2541
1 19.2938 9.0201 28.3838
1 20.4482 13.8081 7.5535
1 3.71875 3.18363 3.12348
1 9.30233 1.49713 21.7464
1 11.3152 23.559 11.9811
1 10.0912 26.8434 13.0222
1 2.73598 24.2693 28.5052
1 8.7451 11.4791 11.8326
1 11.7775 1.25618 27.074
1 11.2694 13.033 2.81445
1 9.89181 27.7949 14.2134
1 29.835 3.05012 30.2518
1 4.4408 8.55077 22.9872
1 11.6236 12.9036 30.2442
1 15.3938 0.833628 1.24746
1 5.14627 5.91466 24.1412
1 25.6588 19.6848 23.7571
1 15.849 24.2221 3.29723
1 2.64811 19.0714 12.7572
1 -0.286931 14.4511 8.81776
1 24.3915 2.18246 27.1853
1 18.5487 29.3952 7.11433
1 13.464 9.02051 6.15619
1 15.7014 11.0647 10.6184
1 9.43015 30.4808 11.7909
1 7.98337 4.92701 12.9368
1 7.64861 25.1833 0.393687
1 11.5513 30.0353 2.52968
1 23.9329 4.26311 3.19098
1 19.0718 28.2791 20.6985
1 11.2204 2.20601 5.41513
1 17.6488 15.1558 19.4586
1 12.8075 13.3712 25.7826
1 18.0683 22.5277 10.4879
1 24.1277 8.4197 29.7744
1 12.2972 4.04109 29.5761
1 24.2608 5.58803 15.6206
1 12.0884 6.50597 10.006
1 20.9552 2.8128 5.20309
1 15.0343 25.0838 21.0079
1 23.2813 7.98579 13.8602
1 3.64355 9.60396 14.3071
1 15.2783 22.3723 20.1817
1 3.13523 15.1731 22.9963
1 26.6966 12.6165 29.3757
1 24.6735 1.18458 21.1429
1 12.3985 21.4887 21.2597
1 18.4513 21.4655 6.17029
1 11.5236 29.3656 10.7136
1 2.78467 26.7575 15.3817
1 9.64012 4.33725 28.284
1 13.4353 14.2725 15.3435
1 24.4128 7.72596 17.2513
1 2.26652 25.8372 6.54904
1 14.5057 22.2371 18.8451
1 8.70868 16.3787 20.9047
1 26.599 0.416346 25.9389
1 22.4278 3.94866 29.9165
1 8.15611 12.2449 9.41915
1 4.11888 18.6651 16.1963
1 27.7673 7.31069 10.1714
1 10.8964 7.41104 7.81465
1 5.46738 11.3368 11.945
1 10.8696 9.35241 29.9584
1 3.97774 26.3992 27.7052
1 20.8267 16.5488 16.4393
1 21.6551 21.6477 0.138674
1 12.5439 12.561 10.1869
1 30.3588 24.4029 14.7334
1 25.9645 20.2266 25.6468
1 8.30525 28.6088 18.6751
1 29.6572 18.0952 25.5919
1 1.90575 2.16316 1.4367
1 1.40572 28.3794 10.5614
1 26.415 15.6142 21.3882
1 22.5906 17.0818 5.04782
1 29.3066 20.8001 30.2231
1 17.2106 3.68785 24.3363
1 21.1589 8.31542 29.411
1 20.6443 7.93533 19.9694
1 16.2071 4.46921 23.4835
1 4.73357 23.0269 28.4358
1 17.2726 12.47 28.2898
1 25.2702 0.742002 8.33441
1 22.3979 28.2381 18.3408
1 27.5453 24.3374 5.99715
1 15.6834 24.035 10.0499
1 17.1769 27.0531 21.479
1 11.5921 13.6784 24.933
1 6.72204 16.6538 15.5539
1 7.51247 22.3817 18.9644
1 4.00207 26.4 30.3651
1 6.83921 28.221 2.58994
1 5.81707 10.8818 14.4081
1 5.82427 4.88238 26.1547
1 11.5626 12.4243 27.7247
1 17.7757 29.2882 29.1437
1 25.6183 27.3642 8.5705
1 1.71895 19.1563 8.86119
1 3.43694 26.9107 16.7573
1 18.9261 6.53046 28.7263
1 22.2616 12.4913 19.0907
1 27.907 5.80336 28.1788
1 26.3497 16.1642 11.4625
1 5.10173 19.3396 24.896
1 18.1862 16.3992 19.1085
1 20.883 9.0279 13.1236
1 17.5372 2.80174 0.523582
1 23.2254 1.08792 6.9116
1 25.0457 17.4402 6.02696
1 6.36394 23.043 21.4381
1 10.0822 29.9446 23.1729
1 14.8727 12.8995 6.02082
1 16.173 23.434 2.21893
1 13.0829 7.28367 14.0445
1 11.497 26.628 21.0756
1 10.1458 26.6946 0.250859
1 15.1566 7.03753 28.4988
1 4.36576 17.3948 2.8447
1 17.9526 25.809 29.5779
1 30.4436 20.3748 29.1835
1 1.19928 30.3477 21.334
1 2.7259 3.57298 11.0349
1 14.4785 12.1639 15.4448
1 7.12129 3.31892 23.2477
1 28.2439 15.2836 18.6826
1 21.2155 18.9587 0.403944
1 13.8953 28.3609 22.3165
1 22.0523 13.6469 30.3281
1 23.3262 13.4247 12.0414
1 1.50345 18.9533 1.40248
1 7.5664 24.6407 12.284
1 10.7608 19.9479 23.8047
1 6.85328 11.5451 25.0272
1 11.3509 27.4428 11.0154
1 30.2812 2.11014 7.90797
1 29.8038 10.2915 16.8038
1 14.318 29.2775 7.41719
1 7.49119 8.3326 20.1763
1 3.24704 7.11737 26.0411
1 11.7153 27.6724 3.4892
1 14.7419 23.2466 3.98237
1 14.0637 10.823 27.572
1 11.8794 29.2843 21.0215
1 11.5369 20.7771 12.0004
1 18.6794 23.9971 24.6083
1 23.1301 30.0498 28.3035
1 12.3531 21.952 13.2911
1 12.5034 12.9681 7.98933
1 4.66185 28.5842 25.3256
1 4.93134 12.2934 22.2806
1 1.85639 7.41961 11.1321
1 1.99699 13.3739 4.07017
1 8.04514 4.71955 4.09356
1 22.7992 23.5012 24.8219
1 1.18495 26.3553 12.0291
1 2.79749 5.03767 26.7453
1 23.0732 12.1532 10.0188
1 29.1776 30.1006 20.6374
1 6.7537 11.5288 0.86448
1 6.37358 26.9074 7.7513
1 6.8575 14.0109 11.3547
1 3.88299 29.3606 5.33303
1 12.378 14.3779 8.76216
1 26.9179 13.0068 8.05496
1 3.81666 4.92212 6.40086
1 17.4252 29.4895 16.5612
1 4.42515 4.43205 15.306
1 7.67879 19.8099 8.06441
1 29.893 23.8507 29.9478
1 8.3042 21.4112 24.3629
1 8.6951 9.00869 5.66213
1 4.0727 18.7803 25.6983
1 13.4587 6.80139 6.92962
1 24.8362 8.72674 8.2301
1 5.17402 21.9221 18.4032
1 12.8942 1.21265 10.193
1 6.36187 24.5651 20.8012
1 26.043 20.7846 11.269
1 19.3885 2.39588 25.8035
1 8.1683 29.007 4.27189
1 6.72402 9.10828 7.94289
1 7.56361 10.1487 18.6008
1 13.9974 6.171 8.63825
1 4.93649 8.31815 19.6271
1 16.7951 16.5921 28.6893
1 26.7714 6.33604 16.0358
1 22.262 29.6305 21.9311
1 16.8036 24.1426 19.3385
1 29.631 20.3237 11.9045
1 13.2054 9.59784 27.1643
1 26.7665 7.11171 11.2977
1 19.3706 21.0089 0.892333
1 12.0615 2.12302 11.2382
1 16.7641 25.9374 7.67607
1 14.1351 4.64673 18.9682
1 1.45944 25.8762 30.2353
1 6.48275 0.973863 29.753
1 23.7031 23.6064 20.99
1 27.2537 22.5438 23.3747
1 6.78363 11.4207 9.14937
1 29.3211 0.594733 15.2092
1 3.66677 8.83516 19.4915
1 9.88026 27.0882 15.6378
1 2.58782 13.2755 8.52689
1 14.349 15.0357 16.2858
1 25.9348 5.14445 26.5259
1 14.6477 9.29943 17.8234
1 20.4916 13.8652 23.8046
1 1.59986 6.28817 22.8281
1 9.88596 7.2447 22.8134
1 1.1412 2.91598 23.2724
1 16.1159 22.127 2.63893
1 0.838045 2.44522 19.6399
1 14.8407 5.23638 26.6972
1 19.2131 16.931 2.61973
1 17.8744 11.1261 1.53301
1 8.7174 16.8578 10.2415
1 21.2785 4.82034 12.007
1 20.8647 5.20403 28.5417
1 7.01507 18.9437 16.4517
1 29.9345 28.6517 0.814661
1 10.757 24.2259 1.12631
1 23.7726 3.18345 13.3078
1 5.27976 25.6895 16.7684
1 29.7694 5.76404 10.9276
1 6.90176 9.18351 23.3741
1 15.0642 15.9393 30.0824
1 2.75034 4.52731 8.42662
1 7.65491 25.1466 15.6143
1 18.0904 20.1804 3.95984
1 26.7567 10.1589 29.0139
1 2.81468 16.1888 26.3681
1 28.6181 17.6628 11.6523
1 2.50019 6.78549 24.9363
1 7.73641 15.2472 13.9975
1 14.7753 8.71088 13.1612
1 2.9632 12.2937 20.6745
1 0.882316 8.58102 10.3448
1 24.0091 9.09918 10.4778
1 18.2281 1.93689 10.5073
1 14.2458 18.6781 18.3747
1 24.8494 9.11767 17.2993
1 1.5013 2.46426 16.124
1 2.36886 14.8015 8.99592
1 18.8357 24.4712 3.28119
1 9.15471 21.9573 14.1413
1 13.6356 9.60932 15.419
1 27.9895 11.8163 14.0522
1 27.7161 5.48126 29.6026
1 6.13771 20.9032 8.28774
1 2.35696 21.7859 22.3748
1 27.7938 29.5722 12.1204
1 24.3822 4.37614 10.1343
1 28.3709 20.0525 17.1786
1 4.66925 2.89219 14.7119
1 23.454 18.3771 29.5029
1 20.2117 10.0467 21.9457
1 22.7367 26.2424 23.9611
1 20.0335 19.6432 2.84079
1 17.0816 7.50822 24.6623
1 14.6191 21.7459 6.58435
1 0.537267 13.5673 14.7428
1 30.7464 21.1555 4.72331
1 0.869492 26.6358 2.11541
1 2.55374 6.50257 5.73894
1 18.017 6.10481 22.7767
1 21.8407 21 28.5216
1 5.20305 0.854108 7.12834
1 29.5582 15.3175 26.2611
1 19.7072 14.1985 19.941
1 7.8514 15.9031 27.0112
1 26.8659 26.7333 20.3131
1 9.56298 16.6847 11.2169
1 2.39654 16.8335 16.1235
1 19.6727 11.11 25.2637
1 15.0587 4.00949 23.8103
1 25.867 21.2718 14.385
1 21.2276 5.07308 18.5176
1 22.8425 6.06282 26.9561
1 4.59962 18.4258 29.5577
1 18.9922 10.3537 23.0514
1 21.266 2.89674 0.174524
1 14.0573 28.5758 1.84304
1 12.2474 13.3955 27.2819
1 29.0438 6.62186 6.53559
1 30.1038 30.0139 21.6395
1 2.45134 2.52259 23.4142
1 4.20028 15.7944 25.9669
1 25.8681 2.50741 29.8098
1 4.01318 24.3187 19.0762
1 11.2117 6.1279 20.8737
1 6.35974 5.32523 5.67399
1 16.5593 18.2633 18.4484
1 7.54381 13.8034 14.6355
1 0.340478 26.253 0.704427
1 20.7841 23.1036 28.7863
1 10.8928 8.55076 23.0169
1 1.09709 21.614 28.8755
1 1.9798 3.68122 28.8686
1 21.5793 7.66448 16.9962
1 27.5142 12.7845 18.903
1 5.95836 27.0692 24.5438
1 20.9102 1.37714 20.4219
1 0.952013 13.5349 30.17
1 13.6176 3.8634 30.1884
1 13.0542 22.8683 8.67486
1 30.1512 2.92209 1.28713
1 23.4095 21.0727 9.43835
1 1.1906 0.994161 1.01445
1 13.148 6.34701 21.6253
1 1.40167 2.1345 8.58522
1 8.41505 26.9875 23.2855
1 12.7694 15.3343 23.3088
1 22.2455 6.99662 13.6558
1 7.56858 20.508 22.3946
1 4.28827 15.2062 0.88496
1 7.52159 25.0609 24.3722
1 20.6318 28.4214 28.9237
1 7.88602 12.5917 4.30466
1 25.688 26.441 22.4123
1 2.75062 8.71184 20.4114
1 28.1087 11.9037 0.453654
1 5.96767 27.3738 13.2336
1 17.4635 5.56745 14.3264
1 13.768 2.61168 0.632449
1 20.9241 26.7299 5.48442
1 1.60743 26.9334 7.16543
1 24.0021 20.1421 6.7779
1 24.1008 5.47516 2.38841
1 5.44906 28.9325 11.5425
1 13.818 24.0532 4.84812
1 1.75763 29.1459 6.55546
1 10.2612 17.4146 18.9869
1 23.1648 3.5237 6.12742
1 23.5577 15.1274 10.0504
1 1.0928 8.53038 24.8168
1 7.25894 30.3138 20.7028
1 21.7578 23.2174 18.5424
1 2.87689 6.91887 2.78159
1 17.8662 27.0511 10.1295
1 29.2135 20.2071 21.871
1 23.5916 14.2436 21.8183
1 12.9444 19.3179 21.7469
1 5.22554 11.7222 0.766923
1 24.8855 1.42218 10.1583
1 7.07152 12.0541 26.5317
1 13.3207 13.2448 6.57128
1 0.373755 11.6411 27.4232
1 0.583071 17.7791 5.16854
1 3.79917 7.29578 0.257585
1 13.8664 2.99334 27.2865
1 1.62135 14.0139 21.2398
1 1.27068 5.41161 23.6488
1 16.641 5.84334 30.1353
1 20.9987 17.7648 17.3001
1 20.6501 23.0892 2.08803
1 16.6608 19.1691 25.2265
1 1.58542 14.9305 1.35494
1 13.8137 4.66823 23.0219
1 9.78385 17.8739 27.35
1 6.81434 16.8426 2.16184
1 3.37848 23.5518 13.8737
1 2.59968 11.3473 15.8004
1 28.8452 20.7646 20.5469
1 3.33297 29.0684 23.641
1 8.24509 23.0514 26.2363
1 4.48166 0.939789 12.9519
1 28.9244 3.2913 24.5725
1 18.26 1.41536 3.525
1 0.886723 0.239292 11.8835
1 13.2734 25.9667 2.46893
1 22.2822 12.6902 2.9501
1 2.645 30.0149 5.81705
1 30.0939 29.9906 22.9977
1 20.8657 23.2404 21.9913
1 1.54479 12.0543 29.5678
1 9.7392 18.2678 8.18525
1 27.0076 17.3666 19.084
1 9.32997 17.3793 22.9774
1 7.95372 25.1878 17.2156
1 2.12593 21.5416 1.41079
1 3.22831 10.2204 29.4578
1 27.5386 28.0729 29.7247
1 14.5744 4.74959 29.7301
1 10.1098 13.0476 1.99716
1 24.2668 12.4532 8.18708
1 14.6938 2.57242 24.2013
1 19.9832 2.27551 8.64941
1 6.54337 10.8023 19.8246
1 1.80541 15.2398 20.8947
1 30.1717 16.8567 5.98456
1 10.0504 10.4767 21.3467
1 5.40109 16.3282 25.9625
1 9.32197 4.37312 13.9163
1 9.71071 14.3912 14.8102
1 23.7854 14.7149 14.3424
1 6.76786 27.5769 5.01785
1 16.7682 12.4951 26.7961
1 20.4217 20.6545 2.0687
1 29.0335 9.12669 20.6844
1 16.2206 16.8775 10.3803
1 21.2063 16.4372 21.5248
1 30.2538 20.4083 15.3565
1 23.1904 29.0002 19.6481
1 25.0134 17.7151 26.0164
1 10.0683 18.4223 3.18745
1 0.923446 18.622 7.45591
1 19.9789 12.6084 23.1398
1 15.7731 25.299 19.5542
1 8.44793 23.2044 28.741
1 3.05301 18.8184 8.82736
1 9.2804 4.35395 4.13754
1 8.38955 20.4703 10.175
1 2.60486 26.8205 11.91
1 23.5559 4.14132 25.3468
1 0.632486 14.9052 24.0595
1 9.11658 18.1824 19.0578
1 18.1609 14.0997 14.2348
1 24.2304 29.3848 28.5296
1 23.4234 29.4278 22.8614
1 8.67102 7.13543 4.46286
1 4.32185 24.2888 23.1635
1 3.72563 17.5234 23.7743
1 20.3717 17.7314 9.75377
1 21.3817 2.85377 11.7268
1 4.12283 24.5664 13.2904
1 23.8462 4.10015 16.2215
1 15.4648 22.8535 9.59385
1 11.6656 24.4941 30.1414
1 21.7098 3.46641 19.9191
1 2.76672 20.3878 21.8064
1 23.5967 25.5631 14.7844
1 17.5035 4.19805 20.5414
1 2.06504 29.1315 9.51205
1 11.1431 3.465 3.12957
1 28.803 11.851 15.5879
1 21.0762 16.7345 2.81396
1 16.4214 28.7809 29.4092
1 29.7159 11.2755 0.772843
1 8.14422 2.27807 8.8756
1 8.73554 0.906584 7.11558
1 16.8392 29.8693 25.9851
1 12.6067 7.48387 27.8202
1 5.19711 4.47536 29.5562
1 5.727 2.64983 9.46354
1 30.1361 4.94138 28.2117
1 6.39355 1.96587 23.228
1 23.7128 26.6351 16.0736
1 8.14682 12.0628 17.4555
1 20.7121 6.08178 12.3016
1 24.1025 14.2783 16.6369
1 5.36604 8.77034 14.8853
1 23.2668 4.51935 17.629
1 29.8409 12.4142 18.8124
1 1.01554 12.7191 10.2742
1 14.4368 10.6445 10.028
1 2.90558 5.15515 16.9443
1 25.9098 2.23458 1.66402
1 24.5761 25.7558 2.69344
1 1.23871 3.48391 1.32556
1 7.98188 4.01948 19.3555
1 4.76425 16.2585 23.2011
1 21.7001 0.758863 22.4877
1 19.6165 7.59541 14.9154
1 20.4421 6.51249 22.7351
1 12.8266 27.4531 22.9307
1 1.92084 4.68104 14.8423
1 4.30788 11.1542 1.93696
1 10.9329 17.2744 17.5991
1 17.6874 7.36882 16.7631
1 9.15538 6.94842 26.953
1 13.4982 10.6908 21.9168
1 9.91877 8.9421 26.164
1 1.56172 27.4077 15.5561
1 18.9549 10.5327 21.2245
1 23.2856 14.6655 1.18453
1 13.7418 0.314405 10.89
1 7.99881 17.789 28.9824
1 13.9429 12.9161 28.9669
1 19.5001 20.5589 26.372
1 17.7485 5.61721 8.60585
1 18.496 18.4684 15.0067
1 13.3482 3.7019 15.371
1 26.5067 28.6862 18.9731
1 8.44905 5.75017 11.6402
1 7.47876 8.77821 13.7199
1 11.3308 18.6755 4.71631
1 4.32285 10.8641 21.8597
1 0.341292 16.3245 10.8311
1 6.47498 13.334 18.8393
1 1.68422 4.55174 25.9606
1 25.899 12.8171 28.0103
1 10.1404 20.8873 26.0559
1 24.7876 18.9583 2.21668
1 11.6983 1.02715 13.4799
1 12.0072 3.16185 7.98518
1 8.89951 2.17775 14.3211
1 10.0328 6.26273 23.6423
1 12.3773 16.3012 11.1677
1 24.6793 15.315 28.6662
1 9.3892 29.9359 17.0449
1 11.0657 19.2865 19.6208
1 22.9863 19.1422 22.0292
1 16.3579 13.9712 24.8018
1 2.45515 22.9985 8.72513
1 21.3063 7.65786 12.5223
1 21.4676 3.49854 16.6703
1 29.2213 18.9892 17.4289
1 12.7968 8.88036 9.03173
1 16.5108 6.88092 28.5376
1 15.0333 30.175 10.5359
1 5.29998 8.23624 27.9016
1 12.3817 26.6109 18.309
1 19.917 24.2466 2.26565
1 3.03939 1.54952 22.3145
1 27.0499 4.14605 21.5728
1 14.6971 23.1926 6.66127
1 26.8569 21.0281 10.1508
1 5.15206 21.3206 13.2763
1 8.27924 17.4888 13.9809
1 13.652 6.31354 12.9106
1 27.0667 8.35717 14.9305
1 12.5948 26.81 25.7895
1 25.2737 27.9685 0.123292
1 11.5025 18.8584 25.6615
1 27.0358 14.5693 20.5698
1 4.14341 15.687 29.7837
1 28.5507 14.2337 6.89538
1 27.6401 20.2278 2.87159
1 5.2883 19.6994 8.44977
1 6.73145 11.8143 4.9502
1 29.6533 11.4176 9.2002
1 29.4289 29.1041 19.5166
1 4.74583 5.69936 20.1865
1 18.2299 28.3176 24.9639
1 30.1869 3.6462 27.5209
1 5.47239 0.867141 16.0944
1 11.6688 25.6293 17.749
1 19.9422 27.4835 26.7427
1 23.9999 9.55594 11.8606
1 26.3928 21.263 27.929
1 7.28555 5.69426 10.3913
1 20.1636 22.863 17.0242
1 20.8283 0.666058 13.0769
1 29.5903 8.47832 8.47072
1 12.3931 21.4293 3.68952
1 13.4574 8.13943 5.04596
1 14.3124 28.7681 25.4773
1 14.1968 1.91208 16.9127
1 24.5151 12.9457 2.42227
1 18.6142 21.238 15.8339
1 9.73272 27.4672 27.8675
1 2.20691 17.3377 22.3418
1 21.1164 11.5663 13.4406
1 18.8735 16.9838 3.88547
1 21.6776 23.9431 16.1498
1 7.41211 15.8521 20.8355
1 7.32707 19.6953 10.1175
1 11.0017 23.8707 14.6981
1 18.268 15.0486 8.17798
1 25.8603 23.1966 10.7716
1 0.724494 15.0902 3.53399
1 12.3032 8.07189 4.3991
1 26.8359 22.7966 8.26386
1 6.77832 24.0311 5.59925
1 28.6745 22.5263 15.7242
1 23.8836 5.37002 7.80013
1 29.7466 21.7708 0.697873
1 11.4634 29.0944 27.5132
1 21.9792 15.1171 18.0893
1 2.22391 14.9694 3.93116
1 19.0565 19.8628 22.8734
1 16.8296 17.853 1.74765
1 21.3085 17.2935 28.9956
1 14.9189 24.5925 11.3272
1 9.37145 25.1913 17.0241
1 13.6117 20.1634 2.55863
1 7.08997 25.9421 6.82917
1 28.9875 9.71697 14.426
1 2.07947 5.67965 19.4281
1 2.69579 14.053 1.8175
1 14.7072 18.9996 21.7524
1 7.15102 9.60806 11.6317
1 14.8093 12.022 17.9008
1 12.9016 10.4562 23.4624
1 24.691 12.5964 27.4846
1 16.8351 7.95944 3.81739
1 4.87678 6.82637 1.15138
1 17.8395 2.89545 19.4137
1 4.81011 5.41174 1.47406
1 19.6313 15.529 10.9077
1 24.5189 15.2955 1.33986
1 27.3936 2.43813 16.7248
1 2.39536 0.330209 22.0928
1 5.22668 19.3046 1.77739
1 6.54347 24.2009 18.3
1 27.3524 14.4209 23.0602
1 11.6257 15.9472 26.8284
1 9.94503 8.33307 9.72961
1 7.75996 3.9295 1.09462
1 16.6246 6.89485 0.967255
1 26.2527 0.610433 17.5941
1 29.0404 20.1755 2.32635
1 25.7505 24.4539 24.2483
1 14.8755 8.79112 10.3189
1 20.8387 22.8637 7.86903
1 30.2363 28.2392 9.98748
1 29.9115 17.9231 11.1525
1 1.40214 24.6314 7.46962
1 30.2093 1.51026 1.40269
1 29.8201 9.1577 6.28044
1 26.1783 12.4573 4.13876
1 3.72382 27.5823 2.56197
1 14.3207 20.7487 9.34997
1 27.4241 24.6493 22.0431
1 21.5729 10.2415 2.14958
1 5.40175 9.61387 25.1139