4096
Atoms. Timestep: 380
1 29.5615 27.6979 27.2173
1 18.1834 11.8569 20.7392
1 11.4975 9.02587 25.5972
1 2.75153 7.75624 24.0212
1 17.9778 4.58967 9.10653
1 17.8227 8.94135 30.4375
1 9.47502 15.1014 9.30857
1 10.2648 26.2104 24.5671
1 9.68631 8.14255 17.8427
1 10.9344 21.4801 10.6866
1 3.37376 23.0087 8.70798
1 8.7317 6.34565 14.5814
1 3.15729 5.98236 25.8268
1 4.69189 4.31392 0.273215
1 19.6504 8.2269 2.46465
1 20.6512 13.0202 12.654
1 23.4245 1.69531 16.9011
1 2.28133 19.6206 10.0954
1 25.4521 10.589 7.36302
1 7.36054 5.55443 16.3247
1 5.91954 15.5385 27.5562
1 25.5778 4.74909 18.9831
1 5.39029 0.780485 13.5756
1 22.9318 9.38385 3.98359
1 3.756 13.2991 17.3604
1 9.4964 5.94853 30.3785
1 19.2706 9.96964 24.9049
1 2.5009 19.4387 15.442
1 4.98312 21.2243 21.591
1 25.9973 5.09103 8.05901
1 16.5165 24.6871 3.28893
1 19.5213 10.5301 16.8632
1 11.3642 8.47144 5.29803
1 7.55039 28.7669 21.2936
1 18.7237 14.4985 4.42473
1 2.87121 11.8263 2.33283
1 25.008 9.50131 10.1357
1 8.52379 26.088 21.9798
1 11.3889 9.87777 27.9945
1 23.2533 13.4152 20.0109
1 5.64721 25.5348 9.08831
1 23.9003 12.0318 24.9363
1 5.75198 16.4084 0.119291
1 22.9815 15.5139 13.8113
1 5.07123 0.463869 5.8896
1 3.08343 17.0406 23.1776
1 18.0583 26.2868 10.038
1 11.0789 27.5293 11.918
1 13.1885 29.7296 15.1241
1 3.06671 13.6599 4.36438
1 16.6293 26.4902 28.3441
1 7.07354 30.346 1.31121
1 18.3237 19.2939 26.0724
1 4.83785 4.92775 12.8895
1 18.3784 14.2769 0.871048
1 22.2523 1.75778 15.8727
1 6.05574 12.9558 18.3143
1 21.0449 12.2918 20.8173
1 26.6717 29.6932 5.27892
1 13.8446 28.4152 24.3401
1 12.241 12.1251 3.50553
1 27.3512 4.75317 4.76974
1 3.88332 28.2578 27.4703
1 15.1877 16.0154 15.889
1 16.5452 23.0915 27.9394
1 8.77952 28.5252 17.9212
1 6.10536 22.4969 20.3061
1 9.2512 26.7002 3.19211
1 15.8719 5.76785 12.8414
1 14.8651 8.59101 8.22819
1 12.8334 7.8807 1.81633
1 1.9367 14.224 14.8528
1 17.3258 3.37459 17.186
1 7.2157 27.9411 22.3005
1 28.2581 12.3324 6.42336
1 6.10544 28.8434 29.1275
1 13.9186 12.4858 3.63252
1 20.9729 13.2818 18.3696
1 9.97351 21.0744 8.64012
1 9.33547 23.6988 16.6325
1 4.46726 12.4112 26.9292
1 0.308862 18.669 20.8485
1 20.9889 22.6137 20.0971
1 25.973 8.48051 6.1217
1 8.5865 5.85724 22.6749
1 29.4118 21.7256 22.6235
1 18.9517 29.7274 20.6615
1 18.1354 1.46293 24.3539
1 6.22821 28.8595 23.3638
1 3.79053 10.1674 29.6401
1 29.8634 5.69971 30.1373
1 20.9201 26.9553 8.25595
1 22.1461 26.4672 13.923
1 18.5442 20.1017 9.5143
1 15.5031 27.5341 4.48997
1 14.6958 8.05634 12.9813
1 22.6798 15.3216 8.69493
1 28.5234 6.09562 23.6962
1 28.8692 22.9539 4.13089
1 27.4314 22.8317 27.7763
1 25.3708 27.7396 19.519
1 29.8765 28.4416 29.7841
1 9.89726 11.5214 0.564518
1 19.5261 12.3535 4.67911
1 5.26561 1.89797 22.944
1 10.533 17.65 16.5475
1 3.81684 16.7075 16.4949
1 0.367332 22.0315 20.4543
1 14.0837 19.2115 8.71019
1 0.779823 18.1162 28.7417
1 22.6506 25.5328 29.5129
1 3.32073 20.5982 3.94977
1 0.298683 4.17737 8.29527
1 7.66435 3.31145 8.86132
1 30.1383 21.2288 23.7491
1 15.1502 12.6196 16.816
1 13.0201 17.9417 5.17142
1 4.36801 27.1309 6.13568
1 24.0111 13.665 22.4392
1 9.848 9.09237 28.0245
1 27.1625 24.3846 17.5347
1 18.3961 11.2346 7.52387
1 19.4198 23.3666 7.21609
1 27.3705 12.1269 21.4809
1 5.07224 10.8943 29.4644
1 27.9057 21.1254 6.3631
1 24.3899 16.9526 1.2925
1 7.20312 13.4604 18.7572
1 25.3409 18.832 30.2324
1 19.9724 17.722 0.13004
1 30.4435 2.76693 29.2561
1 10.2779 25.0004 14.2457
1 2.88229 22.932 16.865
1 8.8869 24.3414 20.0225
1 13.7995 26.6938 22.8261
1 0.43305 1.77983 22.371
1 6.72984 10.4815 4.58129
1 6.51769 20.3471 10.1122
1 6.67577 21.6548 4.9782
1 6.49634 18.1233 10.9203
1 9.21056 3.61922 1.4112
1 12.8403 27.124 0.727187
1 2.93257 25.1583 0.992466
1 16.476 3.06073 7.58999
1 1.92996 7.02007 7.53258
1 20.4848 15.7319 24.0468
1 23.948 12.8667 28.6884
1 1.11498 3.26603 8.24828
1 15.7933 5.67739 3.39684
1 13.7952 4.4428 14.4799
1 26.9259 27.2953 29.6378
1 18.0717 27.7938 23.5524
1 13.315 0.694377 28.0156
1 22.9563 21.4408 10.3064
1 20.3375 20.2213 19.4219
1 30.1738 15.0614 8.33361
1 24.6924 22.3039 22.6484
1 2.34049 15.692 24.8601
1 5.70633 11.8557 25.9302
1 25.3762 21.5948 21.5628
1 2.65944 20.8162 17.33
1 28.6842 17.7018 14.3633
1 0.802602 1.18915 14.5671
1 28.4785 9.62896 28.9552
1 7.80756 7.04374 27.5656
1 24.7607 1.06557 28.7085
1 14.4156 25.7956 19.3596
1 26.9233 23.1768 9.77804
1 10.3567 10.7506 8.06258
1 26.6491 17.7126 26.5923
1 4.48521 5.96362 14.0683
1 19.3289 17.4341 17.6435
1 8.67314 26.1076 12.6724
1 2.85374 26.9135 2.51357
1 10.6695 3.16684 6.30092
1 16.0675 0.793545 9.8699
1 22.7747 7.1079 24.5689
1 4.82186 18.0397 12.966
1 28.8939 24.4536 22.447
1 10.3975 20.8449 22.9555
1 15.7388 27.4264 12.2368
1 14.8024 22.6485 10.657
1 21.7975 8.89324 28.3763
1 22.5514 20.7411 5.99395
1 28.3986 19.0008 5.69979
1 9.1815 1.08408 2.33047
1 27.0798 0.726213 18.5953
1 2.70224 16.3938 18.6078
1 23.843 11.3152 11.7115
1 4.56238 1.87796 12.8863
1 9.07849 1.82349 27.1531
1 10.5605 24.6121 29.476
1 9.19026 10.9033 10.5224
1 23.3824 28.6899 11.3504
1 4.27084 30.2152 9.83898
1 27.3324 4.54699 23.8966
1 29.5901 11.2965 14.8172
1 0.75743 13.9154 10.9606
1 15.2937 2.68599 8.33527
1 11.9055 9.31913 12.1242
1 17.0347 20.0542 29.7762
1 16.3745 23.9545 16.4241
1 20.1962 10.1753 0.987729
1 6.52493 7.69451 10.4266
1 20.0547 7.27515 28.8955
1 28.5307 8.0681 8.27124
1 3.17381 5.33347 17.2174
1 26.7592 18.1607 23.9913
1 28.2809 5.34717 5.73579
1 11.6152 24.7518 9.87744
1 20.943 15.7651 22.5213
1 0.912472 18.8549 3.78322
1 5.49125 29.5731 15.2143
1 16.2575 6.80261 15.8967
1 19.3323 2.51142 3.30651
1 0.350075 7.99565 28.4442
1 17.1159 16.3679 8.40729
1 22.7498 10.008 13.4608
1 16.4604 16.8936 20.4551
1 1.14371 21.4294 2.88507
1 9.83829 24.1577 28.5504
1 8.4637 20.9388 6.32419
1 2.86409 15.327 27.2965
1 5.49152 15.2556 0.515017
1 14.5913 7.09981 26.3857
1 8.24869 27.955 3.18433
1 21.0455 28.9304 21.6426
1 16.8929 9.84614 8.58905
1 14.8538 9.25186 4.55155
1 1.03434 29.5245 1.02861
1 6.57718 0.611042 11.7319
1 4.62885 1.61664 17.7837
1 21.8585 18.9465 4.16903
1 12.9474 5.40592 28.472
1 11.4696 0.583929 0.957014
1 8.46007 8.4733 21.2339
1 6.03452 5.8482 5.98927
1 9.08236 10.0681 15.312
1 19.1207 19.0422 21.7126
1 25.0178 17.5223 21.6762
1 12.6697 0.428399 30.2412
1 23.9247 10.4316 28.2231
1 10.3234 18.0987 11.4827
1 16.5598 25.6978 7.6298
1 4.71464 2.16806 11.4009
1 9.23719 21.2867 3.0664
1 20.5249 14.446 20.1786
1 13.4849 1.30377 11.8702
1 22.6128 29.9911 14.8114
1 6.24673 30.3976 13.1682
1 15.4003 7.9657 23.9959
1 20.1556 17.8711 15.0629
1 19.6063 2.99382 26.4676
1 24.1783 13.2377 3.42527
1 25.9664 1.38218 26.4986
1 1.68232 0.190742 4.51392
1 29.4633 28.8311 20.8666
1 0.529486 23.4058 8.93814
1 23.8219 5.35187 15.3267
1 19.4287 10.2766 3.47179
1 4.24857 16.1807 9.34975
1 27.2802 10.7974 20.3355
1 2.9169 26.9626 12.0868
1 30.2431 9.80854 10.3133
1 27.9684 9.93129 23.3901
1 0.0971091 28.8062 0.597498
1 29.3007 27.4458 4.31572
1 5.55625 28.432 1.8815
1 18.4146 2.88772 24.3064
1 18.3975 26.2146 14.7366
1 5.49049 18.6039 6.76762
1 8.7795 18.1363 1.02628
1 6.61079 17.1503 1.00275
1 25.0726 7.45921 14.0968
1 5.7773 0.27205 0.646166
1 30.2788 11.5217 8.65463
1 9.69945 20.2693 6.39864
1 7.53649 11.9811 25.6316
1 1.12869 18.5391 19.2627
1 1.30563 0.272594 2.29802
1 11.7358 10.5057 15.9608
1 2.11259 1.39178 7.17003
1 21.8701 14.883 13.3277
1 2.9251 23.3483 29.719
1 18.6347 9.94375 29.3992
1 17.3258 13.082 28.0982
1 27.3648 7.53351 27.851
1 21.6831 5.43238 26.1641
1 7.55712 25.3872 15.7509
1 13.9215 13.7816 0.441228
1 21.3519 22.3047 8.60331
1 23.3166 27.9799 22.2652
1 8.03044 29.5612 7.2093
1 22.801 25.9993 9.86403
1 6.16397 8.37324 25.4911
1 2.19683 18.8786 22.739
1 28.1611 9.29551 15.0771
1 17.6484 11.4274 14.9323
1 11.9471 8.51532 8.31934
1 29.5986 19.73 21.1457
1 22.0778 4.64979 17.6445
1 7.80182 2.51778 30.1616
1 24.9083 1.6331 21.4558
1 9.79918 28.2612 25.7094
1 1.7651 19.1146 21.3788
1 10.5988 23.5287 27.4188
1 0.0943524 25.816 13.2091
1 4.93048 16.0949 21.7597
1 24.2112 29.7896 26.7076
1 9.69802 14.4386 4.03894
1 25.8819 12.192 21.9639
1 8.68291 1.05431 13.3767
1 8.30506 14.6 13.7043
1 23.6364 16.5429 18.0825
1 5.686 6.33321 14.8854
1 9.69863 0.201929 8.77481
1 9.42206 0.720748 29.1367
1 10.9013 17.2818 0.266852
1 6.81292 9.99845 22.0466
1 22.3415 24.1119 23.555
1 16.2059 29.5907 2.862
1 20.1149 9.56982 29.959
1 19.9957 22.8499 29.6396
1 28.559 13.6378 14.8779
1 29.9158 6.54787 9.03971
1 10.0857 6.10883 2.6489
1 3.20704 20.2916 9.22861
1 9.94785 29.6527 11.4182
1 27.9461 26.0453 2.6277
1 6.01919 21.5856 6.26672
1 15.6078 3.62896 15.7685
1 16.344 1.25759 5.62934
1 9.40531 9.44382 24.7148
1 21.0185 5.40372 24.9198
1 21.7985 2.27951 29.5915
1 2.92356 18.5674 19.5981
1 0.212776 4.5865 9.63273
1 6.53584 27.4745 7.94716
1 14.1355 26.2063 27.0391
1 12.1797 0.591166 18.9064
1 5.7952 9.66504 5.16716
1 12.8482 27.0975 5.76778
1 11.4366 19.7446 26.8564
1 25.2768 29.7864 20.2491
1 4.57734 24.9185 29.3902
1 27.1438 26.6671 18.1542
1 26.6662 6.34166 27.7561
1 25.1656 3.37738 22.76
1 21.8599 4.06111 20.7465
1 8.32483 0.886279 5.30043
1 5.71586 14.1088 29.5835
1 28.6372 8.68582 21.3372
1 22.471 5.53225 29.7276
1 16.2654 23.2821 21.2319
1 20.3886 20.856 0.648882
1 4.31669 27.0801 11.7428
1 22.3712 23.2946 0.130359
1 15.9781 17.0463 5.9313
1 26.8208 18.5504 7.37257
1 6.33969 29.5248 2.5835
1 1.98281 15.5066 10.4
1 3.37135 18.2346 6.66894
1 6.43796 29.469 17.4285
1 10.7975 3.81191 5.16348
1 29.8902 6.71024 21.9308
1 19.419 27.8365 11.7233
1 13.9701 7.8447 15.6944
1 26.6217 1.25879 10.7592
1 9.56895 28.0161 29.5376
1 6.34525 22.5957 1.08223
1 21.6494 14.5758 28.9316
1 24.7787 1.09366 13.0699
1 13.4866 2.78195 12.4171
1 23.7648 13.0006 1.87191
1 7.46428 26.7015 1.93099
1 29.1362 4.44699 10.3817
1 15.6426 12.2995 28.9862
1 23.8322 16.8658 24.1838
1 21.4455 17.6114 3.97864
1 23.0243 3.17602 8.64825
1 14.0877 1.49783 20.3669
1 28.1355 1.80436 15.8719
1 2.82003 12.7048 12.5635
1 29.8466 12.0847 19.7816
1 7.23716 0.635004 22.7392
1 2.72569 6.04608 0.18374
1 11.8506 3.32658 3.41432
1 25.2886 30.3525 9.02527
1 9.445 19.8608 27.685
1 11.5181 6.5055 5.0939
1 18.462 27.2197 19.2228
1 11.5103 22.3942 11.821
1 27.4714 11.5535 15.8876
1 27.5918 12.9877 5.26531
1 4.79853 28.2422 25.2466
1 3.90203 9.86451 24.6782
1 29.3188 0.12398 18.818
1 19.497 24.123 10.9424
1 18.2679 15.7658 11.7345
1 24.0969 16.6933 6.62506
1 18.3693 16.5757 21.9904
1 5.74036 0.371343 20.66
1 15.8228 3.20332 10.5932
1 3.74318 20.6779 6.97256
1 4.75667 10.0183 19.5563
1 15.0752 21.9522 3.80734
1 13.5898 24.0043 3.35475
1 19.7285 2.97285 5.7857
1 26.9857 26.7388 13.3614
1 29.6442 21.1816 0.829037
1 16.5898 26.5532 13.1719
1 11.6535 1.41069 2.27496
1 7.21402 24.5598 5.38953
1 13.2165 27.5385 18.2416
1 20.3482 22.4329 5.24636
1 28.9694 16.1987 15.0131
1 28.4946 27.8626 11.9216
1 14.0305 6.65979 6.76557
1 11.1866 0.982633 18.2266
1 24.0863 6.92346 20.6354
1 8.37404 13.3274 10.8396
1 10.9281 7.08956 12.8209
1 14.1049 14.2509 6.98879
1 18.4615 15.6242 7.94972
1 2.5801 9.14094 24.5995
1 7.89209 12.1122 15.7102
1 4.56831 5.01396 23.7144
1 2.85719 24.3533 23.9052
1 5.88597 26.0981 7.79521
1 20.2264 1.95851 13.9746
1 22.128 13.019 1.59421
1 15.5907 2.14993 3.33016
1 24.2169 26.8336 7.14141
1 15.9189 11.0895 21.6269
1 26.881 15.5555 21.2455
1 3.11801 19.7066 13.8811
1 27.9871 17.519 29.1455
1 14.4978 4.90181 22.7709
1 8.8386 11.3159 5.74578
1 24.1015 6.18318 7.63038
1 23.8389 19.9469 5.19135
1 8.84797 5.34138 0.834873
1 10.9295 3.54299 9.07334
1 3.19707 9.99709 27.3912
1 3.8303 24.8464 21.6534
1 29.1286 15.2364 3.10475
1 10.4172 13.1949 12.1237
1 25.2772 1.31369 23.9695
1 26.5649 6.75427 13.8274
1 12.7189 13.8155 28.8321
1 3.23041 13.1169 3.02845
1 7.42923 5.52648 9.76934
1 13.8472 11.2481 18.641
1 13.3299 5.38007 22.8915
1 8.68217 27.4155 13.0158
1 15.7745 18.8131 26.8299
1 11.8706 12.7406 8.41762
1 29.5437 28.2356 25.0515
1 2.07156 10.2139 5.12579
1 29.5126 10.6476 2.34485
1 8.63516 16.4608 13.5663
1 28.5508 20.0407 14.2274
1 2.87621 28.3042 9.84372
1 24.7736 4.62838 27.1667
1 30.306 21.0351 21.5443
1 15.0276 16.3994 10.807
1 1.79783 4.69066 14.0366
1 11.2619 3.90854 7.46274
1 15.922 13.7334 16.2398
1 18.1404 17.8632 13.6345
1 5.78833 16.2089 4.04736
1 10.7478 8.16635 30.1131
1 4.43538 26.23 15.893
1 20.5205 1.94184 22.5201
1 13.2752 6.61297 26.7353
1 5.0312 19.3697 18.1235
1 26.5959 8.73026 2.97042
1 20.2258 14.2888 8.85903
1 14.3591 2.97836 18.6353
1 10.3053 2.93576 1.19506
1 24.4127 21.7862 24.1488
1 2.24756 9.0303 26.1757
1 28.1203 14.4739 7.35754
1 13.9706 29.8082 5.5868
1 5.30557 7.17835 5.8959
1 6.86956 30.446 7.56842
1 18.9657 17.8716 15.9441
1 25.5226 11.3929 29.6174
1 2.08309 26.8076 25.5846
1 12.4905 23.2952 16.5579
1 0.259246 6.79826 27.9514
1 14.8708 7.73638 28.2712
1 16.544 10.9337 15.9654
1 2.01627 22.9134 25.9531
1 1.21543 27.6589 21.5372
1 3.67458 1.30053 5.31438
1 3.2337 21.1066 22.9897
1 9.44454 12.1634 13.9027
1 13.7153 8.76948 30.0183
1 27.7955 24.799 3.52371
1 29.9819 21.9745 4.51569
1 27.9481 3.52966 1.48899
1 22.3112 29.475 2.14734
1 4.83793 26.0543 28.059
1 29.8186 16.6808 0.751978
1 9.25009 13.1686 2.33192
1 23.2045 8.64882 23.8664
1 6.58325 10.9505 23.9542
1 22.6312 23.7857 20.5821
1 2.03794 0.62418 9.8809
1 23.6705 26.1404 24.7354
1 26.5822 28.0841 9.97902
1 21.3415 6.60933 8.99981
1 24.3965 15.1098 6.99477
1 26.215 10.7072 1.38714
1 2.76398 7.07021 2.43571
1 12.4281 24.1304 13.1644
1 7.31059 21.492 13.2549
1 17.3249 26.6062 25.762
1 20.3058 28.7133 16.8978
1 3.46134 3.89756 22.245
1 18.3405 22.6724 24.8601
1 30.0513 15.7831 9.49796
1 23.3549 8.63781 2.23301
1 19.9352 17.6864 12.0189
1 5.15784 23.9983 9.08887
1 4.4719 14.0798 4.76663
1 29.5 30.0644 8.87455
1 12.3242 30.2924 9.32776
1 4.53804 19.9838 20.3509
1 8.27428 30.0151 21.9057
1 26.3734 26.3348 25.2861
1 22.2101 9.53678 23.3524
1 17.595 20.2929 12.6756
1 10.1923 16.4383 8.77084
1 25.3121 2.92803 24.0036
1 8.12723 6.03593 21.0101
1 3.16642 27.6891 18.656
1 5.85866 14.5078 9.61323
1 29.1655 25.9155 12.3608
1 11.8388 24.881 29.7949
1 22.1135 4.25036 26.6134
1 0.977682 8.05449 29.6626
1 23.8405 19.2593 18.9446
1 6.2358 10.368 19.6586
1 19.8866 25.4076 11.5447
1 0.270565 20.3242 13.7482
1 6.04392 13.1086 12.6518
1 28.0523 19.5771 19.5857
1 0.32043 9.13241 27.578
1 29.363 17.0184 17.5008
1 10.1239 19.2895 10.2378
1 17.0398 1.01978 29.6739
1 4.10069 24.6393 3.30517
1 9.21707 9.98305 5.11974
1 27.2201 4.58974 12.9534
1 1.42156 27.6659 18.1991
1 12.0805 15.599 18.6647
1 3.67962 27.7834 15.9115
1 30.1701 18.9959 29.3954
1 9.16101 5.64203 3.49434
1 13.8655 2.4733 26.2963
1 16.4398 22.0679 0.392847
1 11.5955 1.13585 9.44606
1 17.3385 3.60877 23.8136
1 28.3472 1.38305 4.20441
1 19.4723 17.925 13.4246
1 16.0508 14.9448 27.6676
1 13.503 18.5625 23.9798
1 15.4969 6.84557 27.4094
1 29.1225 27.8845 15.7631
1 3.11163 2.2362 15.638
1 19.2905 26.7545 15.6517
1 26.8736 8.36208 26.6976
1 26.7129 19.8773 15.568
1 6.90232 11.1515 7.93424
1 21.7457 10.8687 2.68701
1 3.96778 7.23213 1.90358
1 23.2114 27.7127 18.6064
1 1.79685 23.9442 2.94034
1 9.36576 18.6727 25.8319
1 12.1806 8.29549 23.4983
1 18.0554 18.2556 4.9426
1 28.1871 25.4792 28.2095
1 1.42785 16.1198 3.10939
1 21.9447 6.20312 17.7002
1 22.9869 2.26978 30.1751
1 25.9432 12.7559 10.8306
1 7.64563 24.7108 14.3339
1 25.8231 29.044 24.1564
1 27.7722 15.3117 16.996
1 4.07644 20.2892 26.0184
1 24.6956 15.8671 9.43325
1 23.1106 11.503 30.4018
1 23.579 29.8168 3.10564
1 20.2434 1.08671 28.4822
1 6.25226 16.209 22.3187
1 22.1043 8.06861 18.7426
1 9.28324 6.97931 17.1071
1 17.928 29.5258 19.6767
1 11.0286 6.19482 25.6802
1 13.4065 23.0172 17.6414
1 28.3716 10.3729 11.9084
1 0.501598 13.807 3.16523
1 23.7316 23.1928 6.52949
1 3.55529 29.4489 1.4694
1 24.3748 0.768991 27.3447
1 8.24628 26.0357 17.9993
1 17.6939 20.4536 1.68083
1 2.52008 3.27814 4.93095
1 17.8656 21.4802 6.46148
1 7.21364 5.89126 23.6182
1 28.2256 13.4056 21.8083
1 3.52196 28.8045 24.5456
1 19.3883 6.43481 26.681
1 26.7109 23.7657 26.5161
1 18.3777 11.9558 24.3311
1 24.0061 25.7612 2.86502
1 30.2039 9.72547 25.601
1 6.9684 8.43803 28.979
1 17.9612 6.53754 15.0501
1 3.55551 10.1364 0.918549
1 6.28098 21.2604 26.3721
1 3.00543 0.806598 26.0367
1 5.38747 25.5833 24.924
1 1.45221 1.94906 10.5077
1 25.6223 15.5857 25.8963
1 17.1963 21.7888 24.6195
1 29.026 16.6916 28.493
1 23.1743 6.62592 11.1433
1 27.4981 8.85123 22.7218
1 29.9543 7.60755 19.304
1 10.7254 10.2399 18.8026
1 10.5059 26.7477 18.3365
1 7.65477 21.0247 9.6993
1 21.7569 9.30741 4.81562
1 25.6567 28.3663 16.8466
1 14.3425 8.3639 17.0188
1 14.6744 10.0701 14.3736
1 16.934 7.67848 21.6539
1 7.17724 11.6138 5.5255
1 2.54713 10.4191 10.5122
1 9.68511 13.8916 25.1095
1 16.7085 18.5466 4.67927
1 9.94569 11.1033 23.0837
1 0.772186 9.51868 19.9175
1 13.1758 8.90204 0.956715
1 3.50982 15.1743 24.734
1 10.0578 16.9019 7.43866
1 20.9138 28.9253 4.75023
1 4.38305 9.26588 27.3493
1 9.14434 23.9789 1.5136
1 4.24971 7.5935 8.63542
1 4.4711 14.8918 9.97688
1 11.7345 4.59343 13.0265
1 12.1854 14.573 16.3859
1 24.984 27.5112 30.402
1 13.2006 6.4404 16.0189
1 26.1988 18.0613 22.322
1 28.9574 5.65907 22.4543
1 26.1476 5.56542 23.6225
1 21.5701 22.6676 29.649
1 9.72308 13.6003 10.9741
1 7.18577 27.8306 4.25112
1 13.1659 8.8696 18.0036
1 18.5846 2.15532 27.2661
1 0.537398 4.09853 19.7128
1 5.18508 22.9222 12.8217
1 3.55557 5.70631 28.3452
1 25.8988 16.9705 1.54
1 18.0227 17.8059 26.1112
1 6.73052 12.9217 4.65383
1 21.5219 1.06518 26.4792
1 30.1314 1.88425 6.38679
1 5.40909 10.206 26.583
1 22.3376 18.9098 14.3302
1 30.1756 0.800914 5.70627
1 30.1819 24.4138 27.2264
1 27.0441 1.72712 22.3054
1 24.3616 16.5779 15.4809
1 17.3204 18.8774 12.4921
1 13.2457 5.50535 10.4227
1 8.37063 25.4 3.53569
1 3.19966 14.3799 17.0944
1 23.89 26.6752 22.0741
1 19.8576 13.7361 11.6414
1 15.6303 24.8856 5.5382
1 19.435 13.6184 17.5476
1 1.62593 1.18395 27.9012
1 28.3622 6.76961 6.02082
1 25.3427 18.7601 24.291
1 9.25803 23.8756 24.8155
1 2.53446 12.4658 20.3678
1 27.6572 19.5995 23.94
1 6.8148 3.82469 26.0667
1 18.9022 16.8498 4.82596
1 30.1459 5.48243 28.7438
1 10.6837 3.26024 14.8317
1 22.381 18.7898 29.8762
1 2.10179 28.9456 0.551258
1 23.3982 2.80757 4.53814
1 2.83863 3.53161 26.2793
1 19.9527 29.8646 17.5044
1 0.11274 26.7118 2.33555
1 19.9319 3.67495 10.2674
1 30.2222 23.1784 17.5797
1 26.0454 21.8194 13.0682
1 29.4149 20.8994 2.28314
1 26.1652 29.528 17.3817
1 16.6327 8.78779 18.9162
1 2.54189 19.8712 23.6896
1 0.333154 19.7734 8.24655
1 8.23471 20.0311 20.0253
1 22.1785 8.71272 11.6456
1 20.8686 12.4 16.2465
1 28.9971 20.9795 12.0097
1 22.8887 3.7109 25.2338
1 14.1206 14.6327 11.917
1 1.10986 1.71235 1.85166
1 22.1313 26.9582 29.828
1 27.1917 7.93145 11.2382
1 12.0778 22.3772 29.3878
1 9.77987 23.4171 19.0687
1 0.740342 17.7172 2.80577
1 20.9606 8.44021 25.9676
1 11.1599 0.581469 21.9285
1 10.4475 24.0397 23.9463
1 6.4562 27.3475 10.4251
1 18.3758 30.0551 15.5203
1 8.86152 24.0684 2.85494
1 10.5732 5.34024 21.3399
1 6.7862 17.0094 17.3655
1 24.9776 3.46104 29.6119
1 21.7081 14.0876 4.687
1 3.6547 26.4649 27.4078
1 22.3631 0.936394 14.6258
1 2.38941 14.7905 8.83775
1 23.9024 13.8602 13.1225
1 6.41135 2.86713 14.894
1 19.208 28.2637 27.3979
1 29.8471 15.1245 5.95128
1 20.8269 14.0323 6.0622
1 18.7057 9.22919 20.8073
1 5.00658 10.34 6.43844
1 6.86215 27.4973 30.1395
1 19.5844 9.01026 14.8245
1 24.4976 10.3848 6.40988
1 10.9135 16.5207 26.7193
1 29.1196 14.7459 11.8185
1 15.6221 27.3825 2.14377
1 23.6005 2.05684 26.7537
1 8.04752 4.86539 8.47114
1 14.9963 16.2827 22.1403
1 24.4444 16.3931 25.428
1 4.76136 16.5976 13.2014
1 23.3187 20.9873 26.413
1 28.8258 20.2523 17.082
1 10.5226 19.2903 2.55331
1 18.0377 5.78965 9.855
1 13.3526 19.3983 0.635318
1 28.5032 26.8813 28.1703
1 9.83487 13.6509 23.6617
1 16.9887 7.2629 16.9717
1 20.8299 6.35878 16.6276
1 7.26151 2.5744 7.8688
1 14.3591 16.8481 30.1003
1 10.7762 16.2045 25.3284
1 15.298 18.3012 20.4584
1 11.2994 16.1189 15.8377
1 4.85563 12.8072 18.4826
1 3.29723 7.45153 7.33489
1 5.66694 14.8738 4.32452
1 9.04115 22.6242 18.0212
1 27.3021 18.5735 12.2146
1 29.052 23.6235 25.0903
1 13.0125 28.5188 26.015
1 0.138512 1.94253 11.0587
1 14.788 10.6995 8.68075
1 29.2891 20.4348 15.6729
1 9.07452 21.1666 18.1246
1 10.2024 0.223168 23.186
1 21.2385 1.35691 27.612
1 14.2226 7.44265 29.5309
1 6.67703 3.15155 10.9347
1 27.7714 10.5163 29.6229
1 8.43107 18.5448 5.28386
1 8.32286 11.4319 18.3883
1 29.2892 20.3455 13.1787
1 21.5402 2.0673 19.5163
1 22.1926 7.50099 11.075
1 17.6585 1.5209 11.6556
1 11.7893 7.30924 6.36154
1 11.4867 7.92428 21.1084
1 8.00634 3.40686 3.94384
1 14.6657 28.1653 20.2308
1 24.7375 3.23152 14.8566
1 7.3649 17.8521 24.2795
1 22.2274 10.2643 30.4032
1 27.7382 8.90114 25.7512
1 13.9781 27.6602 10.2315
1 29.5936 22.5362 25.5043
1 6.65157 2.98966 17.9064
1 9.45924 17.9329 22.6653
1 7.67192 9.13447 12.1874
1 23.089 5.24381 3.34286
1 13.9814 19.1979 13.4908
1 23.6687 16.5428 10.0934
1 25.8122 2.39307 14.8836
1 10.1247 14.3434 14.9282
1 14.9843 22.2571 15.1599
1 10.9277 24.4342 26.3073
1 2.21146 21.3041 22.0402
1 12.8679 18.0834 17.6095
1 30.2861 11.6858 15.9668
1 2.83126 7.31579 4.87629
1 20.0679 3.86477 19.4066
1 28.506 8.42558 4.54341
1 19.8976 5.18658 7.30387
1 1.07772 16.2574 20.1029
1 16.2688 1.68515 26.7128
1 25.7826 2.35164 10.6088
1 22.6968 27.5347 27.54
1 10.4192 26.3569 14.8072
1 23.6308 27.9943 6.96117
1 16.1796 2.28511 20.2281
1 24.1149 2.26269 1.96247
1 29.9319 15.2903 17.7941
1 17.0837 8.52242 17.2654
1 21.3068 3.99387 16.817
1 27.391 10.549 4.64291
1 14.2156 13.9982 15.3212
1 30.1571 2.79698 20.031
1 26.9117 25.248 24.6528
1 23.2733 11.5465 17.3012
1 3.11998 11.2515 25.0481
1 23.5576 29.1407 22.9591
1 0.960246 25.1676 27.0257
1 1.51518 14.5303 19.074
1 23.7987 9.16029 17.1284
1 7.31135 27.9935 25.7019
1 15.4237 5.01995 18.2924
1 19.0146 4.39404 14.1351
1 15.606 0.829113 28.6793
1 15.7163 13.4392 2.2024
1 22.0071 28.0572 21.648
1 24.4205 7.84235 12.7846
1 28.7994 9.73946 26.1088
1 24.876 13.1042 7.45154
1 10.1498 1.10554 13.1637
1 0.312028 24.0902 3.11808
1 4.9272 28.1294 12.3365
1 4.239 9.88274 18.1788
1 18.3088 9.00155 18.0523
1 23.1903 22.1399 20.9968
1 9.44596 21.9771 30.0176
1 29.9106 11.1084 28.2249
1 24.0271 10.7062 10.3842
1 22.0996 22.9977 23.0091
1 28.5359 6.96748 7.35885
1 21.14 2.68264 16.1664
1 27.1702 0.703727 21.2183
1 15.6098 28.2564 6.49645
1 19.532 26.8169 27.1396
1 6.48789 6.59465 21.1288
1 15.4546 0.876112 18.1764
1 12.3357 6.98706 3.96783
1 26.922 0.255567 14.0626
1 26.8147 15.6917 25.1765
1 10.0719 27.9093 17.928
1 5.80013 12.5084 16.121
1 2.05275 27.3613 0.21687
1 18.7996 24.737 26.5052
1 11.5265 16.0707 23.0777
1 3.50843 19.5827 24.8335
1 27.8187 12.3318 23.9128
1 16.4921 25.7332 25.0722
1 7.45821 18.2485 8.27415
1 25.0561 11.692 20.9398
1 3.97378 11.0555 14.8246
1 13.5892 11.3497 0.37672
1 4.25956 3.29655 25.8903
1 22.9503 29.6127 29.0154
1 2.38363 14.9449 1.50017
1 27.521 10.9999 6.91103
1 17.0463 8.52944 2.34206
1 29.9638 18.4955 23.9019
1 27.1736 23.8342 28.9476
1 6.05851 14.8888 15.8857
1 5.27458 24.2077 30.426
1 28.1864 8.88173 1.08429
1 28.4477 14.881 17.8984
1 6.4756 14.2218 3.27183
1 14.2791 29.0842 10.8044
1 26.2664 26.3974 3.18994
1 25.0215 1.83384 5.8058
1 27.6522 30.2962 2.38491
1 8.88919 4.299 22.6323
1 5.45677 11.3426 27.2595
1 21.6238 1.94785 6.81855
1 27.0497 29.65 18.301
1 19.8979 16.2241 20.3241
1 19.7113 17.7569 7.10173
1 0.393985 23.2527 4.48372
1 5.55392 2.85921 24.0233
1 12.2057 16.2578 28.7746
1 25.3922 0.279995 17.2949
1 29.2047 7.07162 18.15
1 11.7944 2.71829 15.7312
1 29.6954 23.9449 13.1847
1 13.972 14.1962 29.5231
1 18.6701 15.7916 19.5663
1 1.17415 3.82132 18.2908
1 22.9478 19.9833 14.123
1 4.28022 9.8962 2.17912
1 6.00957 27.3316 4.37972
1 20.7284 13.6591 21.1794
1 16.3602 23.2883 8.35563
1 7.69787 3.25332 22.5838
1 0.658883 16.8277 22.1841
1 1.69591 6.71325 15.5391
1 10.6753 26.8584 19.8099
1 1.96138 28.8325 10.9245
1 23.4723 2.36336 25.3814
1 29.2065 26.5127 16
1 2.57914 4.98846 12.5468
1 4.17741 7.20952 29.085
1 20.7591 26.3594 27.6447
1 19.6219 1.95995 18.431
1 11.3873 1.61439 28.3535
1 21.9986 20.384 19.8626
1 6.48146 28.5097 18.5731
1 6.37382 22.7369 26.4005
1 13.3628 2.84723 17.6551
1 1.33882 29.2629 7.95728
1 8.00507 16.4047 3.09147
1 13.8216 9.15649 13.8128
1 6.21398 26.4085 22.467
1 21.3195 16.2209 6.41175
1 23.944 21.4974 3.45004
1 8.59181 29.2237 11.4549
1 3.5629 22.7519 9.98722
1 27.6624 29.0124 2.89356
1 21.4593 27.0589 28.4955
1 7.02512 16.7033 4.01569
1 24.9178 28.265 24.7793
1 12.7474 26.1651 26.4913
1 0.855554 13.9668 28.9134
1 21.17 21.0409 3.27239
1 30.1661 7.64672 13.8591
1 0.0899524 6.79304 26.3733
1 9.36657 19.5891 16.9879
1 15.7639 6.57398 2.22206
1 23.6768 28.7487 24.4447
1 28.5748 16.7232 1.41614
1 10.3745 29.4846 7.94489
1 11.6716 3.17694 22.5155
1 11.7478 9.30681 15.3746
1 16.2428 10.9873 9.02328
1 8.93312 4.10587 19.9646
1 23.8249 6.5548 3.42143
1 15.7386 27.5447 28.2952
1 6.37116 19.3611 17.8082
1 14.093 11.9057 8.35236
1 20.8617 6.31771 21.2545
1 29.887 27.5109 8.82328
1 10.2516 2.74008 23.6087
1 27.103 1.03042 28.3031
1 7.89414 26.7443 15.2944
1 10.4737 28.3426 11.0043
1 29.7843 11.1895 20.9245
1 0.333514 0.844714 28.662
1 0.412189 22.085 24.519
1 12.2668 22.2072 26.7707
1 20.4631 30.3106 4.27502
1 14.4742 21.3199 10.4048
1 19.1194 9.55295 1.88363
1 13.0431 13.9895 26.3514
1 7.31382 7.90248 3.01097
1 12.9695 17.1462 12.2885
1 22.9767 17.9637 9.25557
1 23.9543 0.154054 29.504
1 7.39242 25.4103 24.2465
1 13.4669 25.78 8.81582
1 0.724139 13.6899 23.8377
1 26.003 12.8937 25.4033
1 14.1691 20.6855 13.9837
1 21.4378 14.622 26.5357
1 19.5012 23.3766 28.3683
1 28.1127 7.45362 12.0228
1 5.34693 20.4575 0.19664
1 0.894255 15.8235 28.7872
1 2.26276 2.062 25.6434
1 18.4219 4.829 25.2505
1 18.7352 1.61059 17.2875
1 17.122 15.453 25.8879
1 12.8 12.5283 10.8576
1 22.9924 18.881 10.4628
1 2.60749 12.6573 21.8867
1 1.05924 4.98076 5.83713
1 18.8715 3.5834 9.33872
1 7.31456 8.09341 16.1376
1 6.51407 16.774 23.6856
1 8.7116 9.15837 9.53125
1 20.5117 6.28907 28.0368
1 17.7816 18.9531 21.2354
1 3.98624 7.53013 16.4325
1 23.9258 2.92219 17.5998
1 19.9534 18.915 19.3985
1 26.2089 24.7282 16.6833
1 12.0072 14.8881 13.8267
1 22.6706 26.9109 24.9774
1 14.2967 22.338 22.3502
1 23.5371 20.3551 1.29147
1 22.8214 26.0529 21.2794
1 25.3933 19.7763 18.9851
1 16.269 17.713 27.3658
1 30.3721 18.1728 17.2763
1 0.0911099 14.1529 21.3392
1 20.8596 9.31174 12.1649
1 29.2805 4.21627 22.7434
1 21.7429 12.9378 4.01753
1 17.367 26.8906 14.1875
1 22.2807 16.38 22.2471
1 12.2896 25.5486 12.7092
1 29.4142 9.83584 23.2043
1 26.35 11.3263 17.8276
1 20.9377 3.00108 6.63457
1 20.5025 13.4554 10.3211
1 9.13754 20.8412 12.3459
1 16.4871 18.7257 0.830163
1 25.247 24.7438 4.59153
1 14.9308 19.5002 28.4935
1 15.9942 23.0714 6.84239
1 30.248 23.2122 27.9285
1 5.80486 11.8025 8.61286
1 25.9258 5.56572 20.0055
1 6.39871 24.8738 13.3707
1 2.78552 1.64181 19.2718
1 4.40209 22.8845 29.8058
1 1.72456 12.1142 1.7112
1 26.6796 4.91827 21.2356
1 18.3139 22.2495 13.7459
1 21.1274 26.7002 17.2085
1 25.4701 9.00745 16.0625
1 26.8138 20.3885 9.50114
1 11.5718 2.52845 29.2082
1 27.1201 6.26083 19.5144
1 30.0723 4.90536 7.27503
1 5.6806 14.1153 20.5191
1 17.3292 5.48672 4.1803
1 17.6335 17.6121 21.2856
1 17.1636 6.23017 5.36252
1 26.6226 7.09105 10.0581
1 18.0102 11.1342 10.9706
1 17.9513 5.60636 28.5605
1 14.5878 9.80981 29.1818
1 0.654381 17.9449 23.2329
1 2.74648 14.982 11.6987
1 15.3367 12.1049 4.77315
1 30.0744 28.6906 4.57675
1 12.4979 5.34563 1.82437
1 6.80943 18.2834 16.8296
1 3.08032 9.36888 5.54888
1 7.07186 11.7168 2.51272
1 20.3287 28.8484 24.7952
1 9.27985 2.93937 10.8653
1 27.0736 11.4661 27.0752
1 23.8574 11.6928 1.2604
1 29.3516 5.86733 25.76
1 8.0858 12.1789 29.0351
1 21.9378 21.9202 5.42572
1 12.3674 5.81128 25.4514
1 7.24056 5.00768 7.03483
1 10.1903 8.10239 4.47801
1 8.96953 29.2595 2.94409
1 11.8459 22.099 3.28882
1 24.2904 7.39945 2.38558
1 28.4416 2.87128 11.8049
1 12.4784 1.39127 15.7711
1 4.9048 6.50086 24.503
1 25.5598 7.32017 9.22713
1 5.69269 26.7257 20.0446
1 5.04126 4.9513 5.46438
1 10.4057 14.2771 10.1453
1 15.3045 23.0157 27.2621
1 25.3771 22.9675 19.2281
1 23.544 14.4039 6.22288
1 15.166 2.1514 28.5173
1 19.057 16.7557 11.361
1 23.8635 13.1176 6.43043
1 5.43913 25.6752 12.8593
1 30.2078 26.1456 4.67715
1 15.0093 23.5225 1.38614
1 4.16247 9.70964 20.7647
1 5.20119 4.44164 3.95497
1 11.211 26.286 20.8435
1 18.6972 10.2848 18.2355
1 4.52462 14.5635 30.273
1 29.7374 13.5839 23.7418
1 14.5276 7.75773 22.8444
1 29.0988 18.8787 8.02133
1 18.9203 26.5056 11.3604
1 13.175 24.1784 6.7666
1 10.0075 4.31332 28.2368
1 6.89698 22.9565 10.5796
1 15.5972 21.5367 29.8549
1 12.6804 6.37294 22.2735
1 25.9106 8.57663 18.3881
1 18.2401 23.8386 10.0711
1 28.6395 16.876 19.6239
1 8.14693 1.63573 23.2843
1 13.2838 21.6689 17.5055
1 12.6501 25.1569 7.49057
1 8.2309 2.95829 17.7526
1 14.9806 1.54693 2.28251
1 25.1348 17.7422 11.4914
1 22.5727 18.7139 6.89034
1 15.135 0.180295 7.36554
1 11.2724 14.5044 1.14419
1 18.2184 6.64316 5.88003
1 20.3353 3.72503 27.5279
1 22.4962 23.8642 13.8442
1 15.3684 15.9599 2.55487
1 16.9292 19.718 20.1561
1 16.6924 5.37653 7.17166
1 17.136 14.156 16.6796
1 29.2813 3.54493 29.4899
1 3.21062 20.1806 16.255
1 23.2768 7.38165 7.70839
1 2.75377 17.1094 0.675413
1 27.6673 15.4592 1.01388
1 14.8149 3.64073 23.0221
1 22.5266 4.2016 4.50527
1 22.8919 19.5529 20.1502
1 14.0537 4.40547 9.65596
1 8.24346 30.0438 14.4112
1 23.9716 23.7349 10.5636
1 8.17994 6.83813 16.1223
1 9.7514 14.5582 2.64312
1 2.41208 30.0145 13.735
1 4.10705 9.92058 15.9444
1 2.41338 29.1438 29.429
1 18.3575 20.8907 18.3043
1 27.5949 14.5489 24.8003
1 22.0659 25.7948 17.8361
1 15.3737 17.0071 13.0985
1 27.173 19.246 4.8117
1 5.54643 8.57123 8.171
1 11.1631 29.5113 21.3726
1 18.6502 28.8945 15.1661
1 1.54652 25.6629 8.14374
1 20.7077 13.9793 15.8033
1 15.7895 26.5535 16.1773
1 2.58969 22.0665 7.98838
1 28.8162 1.81394 17.1872
1 7.01104 16.4848 6.87297
1 1.41931 12.9693 7.67493
1 7.26227 20.0786 12.6483
1 1.8397 11.1486 16.8986
1 4.59158 29.658 4.1089
1 25.5907 18.7269 26.8085
1 17.368 24.3533 2.21212
1 4.48557 10.8829 8.40376
1 17.61 30.2107 30.1053