4096
Atoms. Timestep: 1440
1 6.57651 7.0432 15.0556
1 27.3096 15.5985 21.6012
1 4.89298 0.444565 12.2794
1 7.71283 5.4151 28.4297
1 26.0994 11.5606 5.84243
1 9.44437 14.8904 9.89253
1 15.379 3.51808 12.4248
1 25.9979 23.4207 1.07264
1 19.9253 24.7789 17.6889
1 27.7629 9.02555 13.5274
1 1.14321 11.1742 23.5969
1 7.62058 13.108 30.3263
1 9.10914 28.5459 1.27968
1 8.4609 6.18062 21.401
1 21.2686 7.02758 23.8774
1 10.3571 15.0986 13.4328
1 22.9314 3.17241 6.69478
1 8.88104 12.4731 0.554074
1 14.1323 11.7083 16.5818
1 10.589 29.8209 14.3777
1 29.4928 3.48873 4.11362
1 16.9756 27.5182 11.2115
1 7.04543 12.7287 24.6303
1 25.7355 12.9382 8.6151
1 4.38173 1.1837 25.3048
1 3.97345 29.53 4.39765
1 18.8557 4.36417 0.584995
1 27.1455 5.39892 5.65293
1 14.7194 22.9111 28.9546
1 2.08842 29.1278 12.519
1 26.5742 12.8792 20.0403
1 2.18605 19.2556 10.6082
1 6.09977 0.810213 23.3635
1 2.91668 17.4762 19.9778
1 22.2914 9.19953 14.9717
1 0.790061 15.4618 14.6468
1 8.42738 24.7377 19.8622
1 21.3624 15.5586 3.84232
1 7.13456 19.1058 6.07079
1 15.7411 27.6786 15.777
1 28.8318 10.6791 8.18421
1 17.768 4.82221 28.4413
1 20.501 9.17332 11.8409
1 17.7481 14.0131 9.19702
1 19.26 22.5423 29.7727
1 25.76 4.22319 2.34021
1 8.01357 9.8096 5.56294
1 6.36627 14.124 22.7695
1 11.9805 28.2602 8.98316
1 19.8492 12.2926 4.86331
1 18.6299 1.59995 10.7551
1 20.9305 17.345 28.9871
1 23.9865 0.547601 3.37683
1 21.3806 6.62298 14.0056
1 24.8916 8.41049 17.0892
1 1.05912 9.54697 27.7207
1 27.4236 22.5364 26.4459
1 27.0168 1.70767 29.9868
1 5.56756 5.45796 13.0302
1 20.7752 2.60135 28.2049
1 13.8989 29.2221 8.03084
1 26.4789 10.7704 19.9113
1 27.36 24.4823 5.22885
1 8.29397 13.94 17.1071
1 12.1233 16.812 26.0652
1 26.7358 20.5918 21.8174
1 3.12539 28.8691 30.0099
1 22.806 26.5492 29.9508
1 28.1282 15.1177 12.5753
1 11.6845 21.5852 8.81569
1 21.4595 25.6782 9.9455
1 27.571 22.0788 20.133
1 28.8917 29.7518 6.97158
1 20.3694 28.1401 22.4477
1 13.1557 8.93824 5.80133
1 13.1162 15.2073 16.6352
1 23.3073 13.5078 27.6207
1 20.9861 27.6979 0.579554
1 19.1554 1.5468 16.0155
1 10.5453 15.0107 6.66129
1 29.6973 26.3478 6.19626
1 0.858477 19.8609 14.1452
1 20.0833 3.37225 0.732781
1 28.7023 18.0937 27.7202
1 5.51064 14.8315 5.60149
1 11.9478 1.46878 16.0444
1 16.1017 6.92131 5.01374
1 24.2739 25.2321 1.29336
1 23.1216 27.0776 23.4032
1 15.3753 29.9288 21.1235
1 16.3249 20.506 16.2724
1 0.822693 16.2418 13.1407
1 0.322187 3.80269 6.75578
1 19.4309 2.62311 20.263
1 26.7169 3.39904 29.6855
1 8.24692 6.69446 19.1647
1 22.9529 27.6722 4.64943
1 27.1377 26.3574 11.0181
1 11.4327 0.4215 11.2111
1 24.2805 9.6002 20.5262
1 5.36403 25.4262 19.2937
1 27.9564 21.2808 8.57657
1 6.57004 9.18112 4.99582
1 29.8603 20.651 7.50761
1 22.049 14.3436 1.65903
1 23.3279 14.0471 0.896538
1 26.541 7.80581 26.3084
1 27.2599 6.16904 4.03403
1 12.0364 12.5261 8.7622
1 4.78536 8.56165 7.90173
1 11.5871 26.7969 9.02913
1 14.9173 16.3049 27.9429
1 27.5201 7.35294 1.63219
1 4.56242 26.2788 23.6147
1 18.8285 13.2478 20.8726
1 27.6318 19.4982 14.7355
1 1.50195 21.4946 15.6958
1 21.9662 11.7507 6.62541
1 23.2009 25.3933 3.65955
1 14.0793 6.67515 13.6385
1 23.5293 6.48512 30.5568
1 24.0044 11.9893 25.5583
1 4.17755 7.02213 11.8256
1 9.48986 14.647 3.05622
1 14.3675 6.85286 1.19158
1 18.2703 6.599 26.6552
1 19.9341 19.1963 13.7943
1 23.9322 22.4646 15.4749
1 3.11118 20.741 12.567
1 10.2978 5.50242 10.85
1 8.06653 29.817 24.7027
1 20.0789 15.1386 28.4261
1 4.13712 29.73 20.2712
1 4.6222 1.342 16.7014
1 15.6503 9.42219 16.3905
1 1.92413 7.04449 27.0666
1 5.38748 27.0357 13.5686
1 20.9541 16.5019 16.3026
1 13.7459 12.5977 4.38092
1 23.8053 15.0198 25.2762
1 1.53847 15.4353 2.63243
1 4.93084 6.76129 17.7075
1 27.3612 29.4379 9.91625
1 1.0581 23.6276 20.6953
1 11.6049 10.6466 24.834
1 17.3725 18.7372 2.35193
1 3.40306 2.96895 4.60677
1 2.47074 17.1137 10.7798
1 5.5776 8.29355 19.7752
1 7.85684 4.77552 15.9678
1 16.2781 21.7477 15.613
1 2.62426 24.9846 23.0841
1 5.00874 1.2116 13.5757
1 23.488 13.989 9.58798
1 6.36939 17.5475 26.277
1 7.00698 7.05838 24.0868
1 3.88809 18.808 16.3543
1 29.4396 12.302 4.96094
1 5.62931 4.9461 10.6773
1 8.12176 19.2725 26.7734
1 26.7918 3.40955 25.8513
1 8.81716 11.1129 0.602054
1 29.0367 9.07755 15.9196
1 3.73784 20.7891 9.60106
1 9.57953 7.47691 3.384
1 6.00531 2.26244 27.914
1 10.4641 7.12205 22.9011
1 11.1713 14.289 25.3135
1 27.1741 0.555996 20.4259
1 12.3646 15.525 23.8458
1 14.1206 7.77617 6.08395
1 6.03954 8.26462 8.80531
1 18.8175 24.6865 26.2367
1 29.0901 25.3672 23.7395
1 28.3194 14.1555 3.50261
1 10.5454 22.8288 15.0482
1 18.3259 19.8898 24.2483
1 5.34964 8.31673 30.1079
1 2.83941 3.87784 9.45406
1 16.2839 0.552523 24.5204
1 16.9105 21.0658 28.654
1 18.7778 24.4009 8.51326
1 5.19723 5.27948 23.4758
1 29.7964 28.1901 12.7473
1 10.9133 16.2042 23.7332
1 0.732902 5.73801 1.08561
1 9.66953 13.7704 28.632
1 9.16169 0.149156 18.0072
1 29.3837 24.2294 6.4753
1 10.6074 25.4282 19.5569
1 20.0655 24.1091 25.3066
1 2.33775 10.72 9.52673
1 11.1932 29.6825 25.8125
1 24.7883 16.5112 21.7403
1 9.51068 19.4025 11.2658
1 20.1426 21.7653 13.7027
1 20.5415 17.1708 9.83186
1 11.0415 29.0898 26.8549
1 13.7739 13.9615 1.37333
1 17.1423 9.9685 6.39487
1 10.6341 21.8467 22.3695
1 17.9927 4.41053 15.1568
1 27.6055 19.6252 19.704
1 14.5768 4.55865 14.3715
1 24.4714 19.9003 20.8779
1 7.29003 11.8121 16.3832
1 23.1309 5.67305 15.3007
1 11.324 27.6505 5.91386
1 22.387 11.5574 2.09912
1 3.5221 13.5923 6.42273
1 29.1732 14.8463 30.0256
1 14.7367 1.96005 23.4571
1 15.4061 14.222 7.31151
1 13.3599 29.1458 19.9306
1 20.408 13.0041 2.98685
1 9.75745 1.19766 5.25257
1 3.95597 5.24167 29.9097
1 26.7971 5.04588 15.1641
1 4.24631 24.7306 19.7033
1 14.2045 1.90518 14.564
1 25.9899 15.3858 6.1689
1 20.8973 2.75266 9.58257
1 0.51861 9.51606 5.40305
1 6.55982 20.3639 2.49187
1 15.9198 19.2612 18.3654
1 20.2582 23.6428 10.3492
1 27.8592 6.67185 29.5148
1 16.8363 3.68579 1.75246
1 30.7328 25.2936 26.7831
1 20.8765 0.316095 0.294298
1 3.29304 15.1717 24.6968
1 8.94686 14.3545 21.7224
1 26.516 13.8607 12.091
1 8.26164 11.4039 28.8733
1 10.2862 25.4434 17.2449
1 18.2013 3.16936 20.1494
1 26.6459 14.3105 28.6901
1 24.7285 27.0743 6.47538
1 11.6667 30.0563 29.3866
1 13.0748 12.0522 25.8577
1 22.8675 16.623 2.2895
1 29.2526 13.1576 26.2276
1 5.22741 11.0168 8.28973
1 3.80172 7.19441 15.4767
1 14.4115 26.7663 15.099
1 27.6569 27.0047 5.13854
1 14.4616 19.1826 19.2162
1 0.167165 10.6256 27.174
1 8.76863 6.76737 7.04208
1 11.097 10.8983 10.5628
1 27.8935 3.91674 3.52032
1 9.23208 4.05493 22.451
1 12.7958 20.9235 9.76072
1 20.994 9.69821 26.825
1 7.53943 1.22494 8.51907
1 1.56547 14.3624 29.8625
1 2.40936 28.5962 2.38107
1 8.41747 3.31676 16.5027
1 16.2217 28.5423 14.8402
1 10.0154 4.69111 29.0477
1 26.6051 3.09317 10.9566
1 20.7991 21.5076 9.81184
1 1.45628 6.00981 24.2535
1 5.48626 22.8156 17.8703
1 28.4299 6.75034 10.8588
1 7.47671 0.858547 21.3431
1 9.37405 25.9794 1.72195
1 1.3364 12.8783 11.2781
1 24.49 9.99397 17.3778
1 22.1101 24.5533 23.9413
1 2.59847 24.6744 12.8279
1 2.81473 27.3754 7.39109
1 3.03816 11.382 1.36732
1 3.17082 26.1079 23.7537
1 25.6796 23.5763 21.3303
1 14.4684 11.123 14.3027
1 23.2776 10.2609 16.6869
1 14.9819 0.609139 3.01759
1 21.042 11.1463 10.6986
1 18.4788 22.5057 27.2707
1 7.99281 2.57506 8.95019
1 4.92189 23.6611 1.23136
1 26.3226 26.231 1.28341
1 28.1486 27.0888 20.9654
1 4.56232 10.019 7.63772
1 11.0186 20.316 5.98815
1 21.3458 0.26167 27.0206
1 22.3007 16.4204 28.6153
1 8.44018 10.0619 8.18486
1 27.0447 21.0458 19.1259
1 28.7988 29.0654 26.3978
1 18.3456 16.317 15.0199
1 14.8694 10.956 2.91275
1 6.36159 6.33286 26.0004
1 25.7154 16.9909 25.5137
1 15.026 6.76376 15.9877
1 1.4833 13.1555 5.44237
1 18.2802 27.8334 0.510439
1 21.1463 22.1435 14.5021
1 1.1293 17.6142 24.4152
1 18.0079 6.89263 15.9479
1 24.4141 4.81132 5.147
1 23.4779 14.9394 30.0878
1 19.0261 9.87085 10.3065
1 22.1807 20.2197 29.6514
1 24.1488 2.65525 9.79827
1 7.24222 23.5757 16.431
1 2.27235 1.37091 25.9119
1 15.9486 15.4567 28.9718
1 19.7968 17.8828 0.394473
1 30.1561 16.0607 20.1142
1 9.93553 1.15805 9.07992
1 23.8298 27.5128 29.8522
1 0.104877 20.5855 12.3099
1 12.9371 11.9202 12.1126
1 1.54 7.19941 7.84002
1 23.6625 30.1255 17.4868
1 29.8053 1.59471 2.61728
1 10.2058 4.49696 23.3125
1 25.2685 25.2335 3.22943
1 9.19072 4.26805 4.37494
1 2.67157 12.2304 10.6653
1 14.9821 18.3732 7.57877
1 5.10317 19.764 24.3216
1 2.50954 26.3124 20.4838
1 15.3231 27.3798 6.5302
1 1.65111 26.2545 7.78859
1 18.3562 29.1938 11.2658
1 8.42325 0.152733 9.22848
1 10.454 17.2468 20.9477
1 12.5571 8.3966 8.09257
1 27.242 1.62859 7.34075
1 28.6441 11.3222 0.708894
1 2.59351 0.0925099 14.8785
1 28.5845 24.1784 23.1347
1 16.914 18.1517 12.2659
1 14.1072 27.8701 0.860971
1 15.811 0.933399 23.1821
1 25.3894 15.4801 0.310671
1 13.8258 13.7381 13.1363
1 27.0018 8.49244 2.13311
1 4.75866 21.1505 21.6912
1 27.5019 13.3137 6.59472
1 15.3147 19.4268 4.21085
1 12.2257 14.939 26.2787
1 21.7878 11.5387 23.7123
1 20.7431 4.93806 18.468
1 1.46557 3.31985 7.53776
1 28.3785 1.62089 0.469422
1 25.5546 20.4802 24.5324
1 18.5033 7.33906 21.1341
1 14.0753 30.1003 21.4368
1 24.5418 17.3075 5.38876
1 10.281 10.5495 13.8305
1 6.07853 4.42299 24.6341
1 10.8904 9.79502 12.7639
1 11.0921 23.8789 2.38279
1 8.1258 26.043 26.1347
1 0.149976 4.89042 18.8584
1 24.038 1.67162 17.2835
1 19.8721 27.1694 16.026
1 20.8234 12.1285 14.2891
1 10.3344 0.673583 12.6232
1 8.42706 12.5101 26.5886
1 20.4417 1.20755 28.0293
1 28.8413 3.0423 1.18262
1 6.5815 20.0466 6.96024
1 8.34409 22.2572 13.2813
1 25.2617 4.7994 24.5854
1 17.1319 22.4078 28.2144
1 11.8665 24.9216 6.98203
1 25.8161 15.425 21.4518
1 28.9704 0.507059 28.4325
1 10.8599 10.3613 29.0242
1 4.82687 18.4706 11.9246
1 28.4497 14.0965 9.57804
1 5.23149 13.3924 20.8385
1 25.615 12.4216 2.81966
1 4.89304 9.40228 11.5598
1 9.44044 20.2366 14.9556
1 0.458386 22.3135 24.0074
1 12.2022 25.7044 4.20303
1 28.6343 14.7471 17.2822
1 2.0585 0.623899 7.29441
1 17.1965 22.6733 15.7666
1 29.1431 18.038 12.0533
1 26.3254 8.951 13.1903
1 12.422 14.0223 1.5404
1 22.1756 15.9216 22.8506
1 3.31221 24.7304 14.0768
1 1.02299 26.3801 6.39631
1 29.1076 20.755 9.79763
1 29.7325 26.7477 30.1124
1 4.29708 2.68096 13.2163
1 7.3523 6.97003 -0.00654232
1 24.781 13.305 27.3873
1 27.6038 19.8002 13.5129
1 21.5466 11.7427 15.7874
1 19.5709 9.1871 9.10416
1 3.76045 16.2028 12.9919
1 23.8756 16.0828 24.2903
1 1.09769 0.169348 0.31873
1 7.11012 6.54234 27.566
1 9.62081 27.1311 7.73028
1 4.53622 13.4619 2.84168
1 0.866367 11.7931 0.579566
1 17.8695 18.2267 5.93457
1 11.2533 0.937863 17.4706
1 6.08726 10.3382 18.0529
1 13.5589 10.0608 5.11217
1 8.25877 21.8181 1.219
1 4.8857 18.8201 8.18253
1 21.285 11.0517 24.9939
1 25.7634 22.0744 13.8956
1 26.4809 11.8193 10.3614
1 27.8758 29.7788 28.8391
1 17.1897 20.871 24.4329
1 20.8824 22.0205 17.3028
1 17.8113 5.99375 14.8864
1 20.4993 6.17049 20.7515
1 25.412 1.42965 21.5909
1 14.7591 27.2381 21.6907
1 18.2869 14.859 14.7526
1 9.27334 24.6722 24.3814
1 6.99828 16.2928 14.1106
1 15.5027 10.0587 28.8467
1 25.7151 25.7004 16.7951
1 30.2184 23.917 7.55851
1 8.24423 25.2417 2.42127
1 12.7072 6.1856 13.8457
1 12.802 18.8903 8.02493
1 10.8089 3.52609 16.4857
1 6.00239 6.95414 12.5605
1 14.3156 21.9368 22.6632
1 18.0833 19.146 25.4056
1 17.7259 21.9711 25.1179
1 23.8893 27.3633 2.47659
1 27.9342 12.8433 11.9947
1 2.45025 9.55892 13.3756
1 -0.0957013 23.1727 19.8134
1 3.20198 24.5961 21.9357
1 14.1001 18.5284 12.8363
1 15.967 24.6932 15.6505
1 4.03805 19.4393 23.4772
1 14.991 20.8914 6.3529
1 5.89027 18.5055 5.51246
1 7.51584 28.9211 22.6784
1 12.4274 28.785 17.2797
1 23.2098 0.673951 14.7943
1 25.22 24.3662 23.4253
1 20.2064 21.1122 25.9748
1 18.9639 22.3507 20.0062
1 19.9504 6.41825 5.02837
1 27.2347 25.8828 7.04523
1 2.45087 9.49318 19.803
1 19.2828 25.8796 23.1822
1 24.3368 10.268 3.2596
1 17.579 29.1729 23.2741
1 10.3978 2.93544 20.6145
1 16.1232 2.66253 0.893225
1 27.9752 16.7848 25.8925
1 25.2541 26.5396 14.2037
1 2.98632 15.8077 2.15843
1 2.53895 23.2921 28.3859
1 5.87721 13.5646 9.50637
1 27.1856 5.99086 8.86171
1 19.9043 2.28504 1.42408
1 18.2359 16.8027 19.7804
1 27.7484 4.88509 24.0972
1 0.979554 24.9212 29.6568
1 28.4654 21.6311 4.42826
1 12.0972 27.1847 23.0312
1 24.1051 29.6242 12.9395
1 28.6914 7.99584 20.8553
1 23.6051 13.1034 19.5957
1 9.24925 9.7277 16.2877
1 11.3092 9.85618 6.97726
1 26.8756 26.6607 28.0769
1 17.6337 8.51243 8.14372
1 7.5868 12.143 18.6416
1 13.3326 27.775 22.6644
1 10.4092 0.926353 0.758914
1 5.92331 0.381034 10.3041
1 3.18923 17.2687 22.4841
1 20.9929 4.32326 25.3504
1 10.1666 11.6616 2.45554
1 3.63022 6.33673 28.8442
1 16.0034 26.0489 13.6756
1 27.5708 29.4116 12.7144
1 8.60814 8.5034 1.2298
1 28.1649 3.36398 18.0768
1 8.8055 29.04 20.5976
1 1.56869 15.7622 9.41539
1 23.7639 28.4231 12.2866
1 7.43337 11.2126 21.0982
1 4.3464 20.0217 16.6649
1 9.04827 25.2473 11.4698
1 3.66179 13.2649 10.3088
1 5.22887 10.9678 0.127061
1 7.37759 15.787 3.07155
1 27.2872 4.51665 29.0947
1 10.5753 25.7636 29.1398
1 25.6234 20.7315 25.9641
1 8.23618 6.15615 29.4008
1 2.93163 4.92498 17.5533
1 29.4661 3.33856 18.8963
1 21.4422 22.3106 12.3248
1 14.494 4.86083 20.7752
1 14.4028 17.1836 3.18997
1 13.279 24.009 18.0473
1 25.6086 7.75027 19.6057
1 25.9671 8.91 23.4579
1 14.9208 2.60819 20.8109
1 6.60026 4.43368 15.5197
1 12.4701 3.7517 2.8612
1 1.49547 8.89818 17.7788
1 26.3147 11.7681 8.2136
1 5.6225 0.50042 1.48334
1 18.617 12.2821 13.4834
1 23.2751 5.44704 9.7549
1 0.598483 7.7637 2.5044
1 5.69939 26.8245 26.9956
1 18.944 11.8308 8.69493
1 5.33245 14.1167 17.8651
1 7.39507 30.27 6.15519
1 5.87535 22.2071 14.0002
1 2.42166 7.78561 21.2725
1 24.2741 15.9342 14.0275
1 12.8525 25.8217 12.3039
1 28.1368 4.37661 17.0685
1 9.0888 9.00064 18.7138
1 16.3961 12.9092 1.9486
1 9.63151 11.7846 3.72835
1 6.49182 28.0835 5.15982
1 9.64231 22.792 3.83726
1 13.7876 4.69887 0.276552
1 1.27241 7.24992 4.92371
1 14.4111 5.56093 6.0237
1 12.7755 25.7995 26.7709
1 27.7256 9.8029 5.76018
1 8.75094 1.62387 25.1334
1 11.7252 20.3209 28.2936
1 24.6969 3.53798 30.2997
1 10.9714 0.641774 20.9934
1 20.1889 16.7038 21.4742
1 11.6419 6.89179 14.5719
1 3.2569 29.3503 1.32438
1 14.5625 14.0547 8.36928
1 9.46833 7.7099 5.27048
1 27.7103 12.5857 18.0321
1 11.7332 22.9737 11.9672
1 13.0139 24.7199 6.39369
1 9.91723 17.1019 10.5875
1 1.00505 23.356 23.0946
1 0.478733 18.3372 18.6684
1 1.24797 25.4566 10.0177
1 29.2604 11.9065 29.6533
1 26.3655 27.6085 0.857759
1 8.93665 15.9051 10.7492
1 19.8585 14.9422 26.99
1 1.25601 28.2306 20.0338
1 5.51111 14.3917 11.8502
1 3.74512 11.452 20.3479
1 19.6365 23.4366 4.74212
1 15.1651 8.81482 9.27152
1 4.29293 23.5496 21.8521
1 12.0971 1.32467 2.45139
1 9.84952 1.23658 22.042
1 10.9635 29.1632 9.36616
1 0.669208 13.8127 4.27268
1 0.721565 6.86613 9.55276
1 12.4975 21.3398 20.7649
1 7.12685 29.1174 17.783
1 24.4865 14.13 20.1224
1 1.76012 29.1667 9.07114
1 13.1154 29.0177 22.0962
1 14.2877 0.287752 29.281
1 19.2854 6.25599 12.3927
1 21.884 8.82055 28.3662
1 15.1268 1.61232 19.9096
1 16.2566 25.1817 12.366
1 14.9672 25.0528 25.9342
1 7.27119 3.90459 8.34432
1 17.417 26.2334 27.8302
1 19.0738 11.7122 26.0986
1 27.6143 23.9564 0.958268
1 26.9089 26.2083 21.0295
1 9.50668 26.6934 22.4792
1 18.7384 2.27547 13.9562
1 0.23215 5.29224 26.9599
1 11.1443 21.2508 21.2855
1 2.2052 27.8425 12.0096
1 0.207675 26.2615 23.3346
1 13.6542 0.405368 8.76953
1 30.0842 2.74721 14.9498
1 24.4322 6.21447 2.84032
1 14.229 5.4684 3.86575
1 29.2474 3.01414 2.62834
1 24.0667 6.66068 6.81948
1 19.4916 3.296 23.4677
1 21.1975 4.12431 2.6416
1 9.38506 22.2655 6.56806
1 27.664 12.0187 10.8543
1 18.3216 8.11522 16.2044
1 7.62315 19.2351 19.67
1 9.89566 9.06808 11.8455
1 21.1995 23.4084 19.5417
1 17.7307 17.8084 21.4865
1 4.29436 23.8307 14.2867
1 13.9485 11.1422 29.9771
1 26.4296 16.9057 28.606
1 27.1223 15.9602 19.1879
1 15.0165 9.40035 27.6023
1 20.571 18.606 1.19251
1 2.24941 12.1264 15.1723
1 6.02058 6.68112 29.8101
1 15.5135 1.56109 13.8788
1 27.9372 17.5991 9.57165
1 12.3597 12.142 4.22614
1 20.502 4.72594 29.1649
1 14.2702 9.39761 13.0455
1 24.3431 25.586 17.6336
1 16.234 6.65236 24.5708
1 2.09105 13.1328 6.54293
1 1.38708 27.5973 28.4556
1 1.20021 23.5847 6.90626
1 24.8761 14.0881 25.086
1 27.6631 7.72541 18.4922
1 17.705 20.1003 21.0523
1 5.76917 6.57602 23.3705
1 20.292 29.4622 4.9144
1 17.032 3.89185 15.9981
1 7.98081 26.7941 17.9767
1 22.8547 10.965 7.40971
1 21.1874 28.7385 14.6792
1 10.4539 1.87811 19.9258
1 10.5781 29.5961 7.49526
1 25.5617 23.0708 2.41121
1 12.783 1.6729 8.0169
1 21.2356 29.732 2.52553
1 6.6861 24.2155 9.76468
1 26.61 10.4869 27.9943
1 19.7484 19.1371 20.1629
1 2.56023 2.49635 29.7371
1 18.3938 29.852 25.2186
1 12.5104 6.46553 4.81079
1 12.7393 7.18366 24.4265
1 13.8955 1.1972 24.4102
1 28.5152 2.16686 9.69181
1 15.5259 13.0899 8.22167
1 13.3487 23.1906 26.1749
1 20.7385 26.2091 27.2278
1 11.3002 13.6106 0.676788
1 3.4534 4.75427 11.9226
1 3.90451 5.5882 25.9726
1 13.7383 1.46097 18.7865
1 21.706 22.798 3.08954
1 12.3848 20.8033 29.3302
1 8.01973 14.9138 25.5798
1 16.5617 3.23291 11.5826
1 1.93282 15.8869 29.5279
1 1.58851 5.74018 16.6002
1 29.0092 17.7661 21.0883
1 1.1362 23.7266 17.8045
1 1.03346 15.5665 11.7546
1 11.2694 4.46163 26.3349
1 7.64056 22.964 2.10371
1 27.786 27.1919 11.8324
1 8.91847 19.7916 27.9251
1 18.4433 12.6923 4.98207
1 9.30361 8.41731 25.2134
1 11.9799 6.96807 23.102
1 0.97879 23.4882 4.84862
1 7.87727 13.8107 12.9104
1 11.4739 8.95065 3.60937
1 16.7333 12.6547 8.81097
1 7.34441 21.0285 16.3455
1 5.02045 16.5348 13.6331
1 27.8385 19.9491 9.51811
1 24.3343 21.2614 17.4956
1 21.4107 12.9992 8.7727
1 17.9066 1.5199 4.91756
1 10.5584 29.3458 23.3005
1 25.8518 1.53482 27.3134
1 16.0048 17.2006 9.1197
1 19.7636 19.0899 3.65818
1 2.73763 0.810381 20.7265
1 17.653 13.6224 29.1689
1 12.0694 3.06522 27.717
1 2.12761 14.5501 11.7042
1 22.3863 12.7924 5.60744
1 22.3769 9.71074 29.467
1 10.4261 2.62706 9.26503
1 19.4882 29.6051 8.66827
1 18.536 3.68711 13.9819
1 17.2673 1.6896 18.2513
1 4.03186 29.0884 13.4346
1 26.4576 16.8345 11.4298
1 14.5563 2.6918 1.32623
1 14.8169 27.1399 12.3417
1 9.14553 19.0098 8.10897
1 20.1527 0.955346 13.8669
1 21.218 18.7365 28.6947
1 8.16224 23.328 9.47356
1 9.14967 26.8667 17.2078
1 7.21101 25.9377 22.4521
1 22.2876 8.67006 20.5749
1 28.4665 15.3805 14.8999
1 3.58874 10.2883 6.80773
1 23.6205 14.1424 7.40797
1 7.88929 2.55651 24.6977
1 10.8582 13.3229 27.5496
1 6.25058 10.8358 16.7695
1 20.1168 27.898 6.92149
1 16.0686 10.7935 16.3036
1 13.0179 26.6194 3.63229
1 24.912 4.33632 12.2486
1 18.1517 16.062 29.9832
1 10.5294 3.34058 27.123
1 3.41523 4.09323 5.63484
1 0.36492 21.0052 23.1726
1 16.8801 5.59574 6.71825
1 3.63815 12.2943 26.5449
1 28.4054 5.34945 3.59366
1 2.94174 19.8244 29.026
1 7.24505 2.2472 6.16606
1 11.29 17.2172 28.6146
1 11.5897 13.6861 15.3262
1 29.1984 13.6022 12.0276
1 10.9146 23.4416 10.9675
1 10.7908 17.939 13.5015
1 28.843 3.86657 23.7971
1 9.35216 25.1054 16.0701
1 12.4222 6.00115 23.8669
1 15.0085 14.6413 15.0821
1 20.4926 24.9525 3.91564
1 5.87002 5.26596 1.38462
1 4.58856 27.4464 22.8956
1 4.92524 20.235 27.2133
1 9.90488 9.33116 21.5385
1 24.602 7.34031 5.30952
1 21.3094 9.64737 13.9135
1 15.9661 24.8689 20.0985
1 10.4043 26.7131 24.9995
1 3.66719 21.3097 3.81226
1 6.74779 15.1448 11.1998
1 27.7589 12.0742 13.1645
1 8.86733 22.1189 24.0137
1 7.75313 10.356 29.4249
1 8.78884 27.2499 1.67714
1 6.04484 24.7779 20.5052
1 18.7138 3.06309 10.4314
1 18.6916 12.0707 23.5444
1 16.226 13.5626 21.7496
1 28.8949 13.4079 7.12041
1 18.7304 4.67979 3.08785
1 20.3929 9.77383 8.08176
1 16.186 27.2268 16.9639
1 8.46875 2.62504 19.0933
1 19.4266 17.9387 10.1481
1 26.2919 1.07622 22.8481
1 10.1371 17.3192 5.64381
1 15.9218 6.80791 27.1302
1 19.3622 29.6181 16.916
1 6.9695 11.5059 2.56769
1 21.5538 4.10129 21.8768
1 10.3074 23.2395 6.37287
1 4.13637 9.40848 4.20685
1 12.5494 3.22636 14.6638
1 5.16387 6.11603 9.88081
1 0.523165 23.8826 27.2352
1 15.0786 16.0874 15.4081
1 10.087 10.7317 16.7072
1 29.4951 5.58968 4.71235
1 26.4509 6.40976 6.3295
1 17.1942 29.4705 15.4811
1 7.69027 15.9819 1.63623
1 10.9812 10.0397 27.4373
1 4.9596 28.5018 7.88874
1 19.4519 14.4925 7.29517
1 15.5136 14.5781 18.7796
1 8.98104 17.5563 6.41959
1 13.5672 15.8202 13.8084
1 7.85832 6.38875 14.261
1 18.7183 25.9869 28.5048
1 4.16873 19.0302 2.04943
1 26.4943 6.2297 11.4257
1 13.5436 3.24846 27.2819
1 0.756215 23.6799 13.0484
1 8.58844 1.88183 13.8138
1 20.2286 7.47966 13.4771
1 4.99576 12.8586 29.3095
1 27.1195 22.3921 23.2171
1 13.4138 16.0621 28.2197
1 24.7049 1.31453 24.0174
1 10.3445 2.49266 25.7474
1 12.439 21.1708 6.22114
1 1.81886 12.6388 23.8129
1 2.69781 15.6917 17.6329
1 4.55603 12.9855 18.3423
1 14.8734 9.83636 15.177
1 4.76213 8.16199 17.4677
1 16.7801 1.85621 24.5474
1 12.5509 24.7811 21.571
1 0.829637 4.14343 21.1523
1 17.2101 11.4698 16.9386
1 7.28099 25.6917 17.4002
1 9.89818 15.5467 23.0262
1 20.4643 7.21516 10.3671
1 24.671 21.1948 18.9546
1 1.27005 4.35967 3.28432
1 2.1912 18.2104 26.6509
1 6.64055 22.0288 19.9466
1 7.98716 18.385 3.21342
1 28.125 13.6944 28.4046
1 0.540036 13.2288 10.1302
1 5.44519 27.39 28.3352
1 22.8756 22.6999 2.11858
1 26.1967 27.5195 3.28374
1 22.4011 23.2237 27.8521
1 10.5281 29.8699 30.0436
1 13.8439 0.846419 4.98394
1 6.82048 19.7103 3.51385
1 17.3797 3.08232 8.13504
1 4.36816 8.91648 2.79302
1 29.3233 5.54921 10.8441
1 4.33624 10.573 1.06422
1 8.37324 14.3076 19.4722
1 23.8471 20.5063 1.27742
1 11.4603 12.4791 29.9855
1 21.4015 12.9668 20.7823
1 1.0602 16.9231 22.9375
1 18.226 14.7665 6.13935
1 15.462 14.0344 20.7223
1 7.50409 3.59133 6.70801
1 13.9576 0.272897 0.706079
1 6.933 29.684 16.4241
1 7.77638 29.1011 11.7499
1 20.8986 15.9106 20.5289
1 23.3274 5.64952 2.23905
1 21.9486 0.540857 8.6437
1 16.238 13.765 3.95611
1 8.91252 8.84722 17.3306
1 23.1083 24.8347 26.3897
1 4.66262 19.7051 25.7808
1 13.4522 27.4442 12.6469
1 14.7113 7.42622 14.6141
1 6.6024 7.25631 3.02205
1 22.2253 15.8305 5.18511
1 23.1079 24.7955 20.1545
1 4.63921 29.702 1.76386
1 22.0817 29.5129 21.5741
1 29.3725 14.42 6.29391
1 11.7319 21.3801 25.8917
1 28.5219 9.15931 8.21717
1 13.7618 4.64783 2.42686
1 2.22768 10.6122 15.8305
1 25.785 4.88754 13.1213
1 25.2923 12.4025 29.6423
1 4.34577 6.05489 18.6629
1 18.8496 10.5235 26.9478
1 24.1448 17.4257 16.6448
1 6.50276 14.9346 9.70303
1 14.9206 19.7351 23.9942
1 15.8113 15.3822 10.8522
1 8.97796 9.49068 4.53555
1 5.56268 23.1958 27.5383
1 29.4181 30.0035 10.5449
1 6.32669 29.1305 1.32797
1 27.9319 23.7998 14.5086
1 29.2325 24.9933 18.1524
1 26.9362 9.28074 26.4269
1 5.21059 12.3451 5.07087
1 27.9599 17.6806 15.8888
1 4.87735 10.2053 2.27371
1 3.05115 19.434 14.9768
1 7.65323 17.7753 10.7289
1 1.59439 5.03478 30.1237
1 17.2427 8.98138 14.2591
1 29.3481 19.5097 16.6404
1 22.2024 18.1294 0.685642
1 25.7911 7.4356 23.8394
1 11.2291 26.0317 10.293
1 26.6885 5.53619 19.13
1 5.90477 13.9397 3.00938
1 1.55423 29.8332 13.8674
1 5.5764 26.9439 2.38162
1 7.22113 10.2045 25.8135
1 8.57929 23.8791 16.138
1 2.51812 25.1971 8.21836
1 6.93124 10.9153 18.9907
1 0.712902 28.3877 14.8392
1 28.5933 18.2887 24.1479
1 3.24339 16.0213 28.9627
1 29.5365 7.50861 2.63125
1 18.9109 17.205 26.1881
1 12.0038 7.27224 8.54927
1 15.0706 3.8285 24.6082
1 9.46069 21.9923 20.0175
1 10.765 17.0233 26.0311
1 28.9875 29.1239 21.2806
1 4.46993 29.1172 3.21476
1 23.187 7.68296 19.8745
1 12.9903 22.8079 15.9401
1 16.108 12.0141 10.1208
1 4.48205 30.1828 15.9501
1 3.09205 1.33511 24.7401
1 15.8819 5.01505 25.586
1 12.025 18.4156 24.2637
1 26.0882 8.857 15.4359
1 6.52779 17.281 19.0193
1 10.3044 13.6476 13.1531
1 3.68268 4.96455 23.6995
1 22.0269 1.4444 7.49228
1 27.2366 10.3678 21.3055
1 6.86653 30.1499 22.2083
1 4.93751 4.66293 11.7452
1 4.02132 16.709 28.0485
1 25.3568 28.8358 29.1083
1 5.39713 25.8508 10.7754
1 24.3474 12.0991 24.0151
1 15.894 11.5222 24.4567
1 9.99412 20.5214 25.8402
1 18.5476 15.8239 24.7936
1 12.984 21.8997 25.8141
1 1.50585 9.34008 4.12471
1 6.45709 11.4864 8.56042
1 26.5834 29.3691 28.416
1 2.41428 26.9905 24.565
1 13.7206 30.1954 3.7518
1 14.4954 26.8553 1.60005
1 6.22586 23.7031 10.9228
1 25.633 26.7069 21.3904
1 20.657 28.2954 2.63501
1 21.4062 9.09403 25.6207
1 13.5497 16.5386 24.0539
1 5.71882 14.4569 20.1028
1 0.32478 8.82355 15.384
1 14.087 25.402 11.2093
1 20.295 29.2074 17.9654
1 27.2451 27.7466 16.7862
1 6.76702 22.9983 29.9309
1 0.661901 29.8565 3.45945
1 18.2537 14.3833 2.49401
1 18.6489 8.55843 17.4814
1 1.88422 7.26726 14.1241
1 3.53243 13.1048 29.1769
1 4.68689 21.8762 11.2523
1 10.6218 4.88286 8.38331
1 10.8746 24.2236 24.5535
1 29.9478 19.1363 27.4278
1 11.5032 13.8618 4.36599
1 14.4093 26.6729 22.7324
1 0.846785 18.2587 8.07018
1 5.98264 19.5222 8.17801
1 27.5206 0.956673 3.23299
1 1.35027 6.42641 2.30237
1 28.5806 15.784 0.605435
1 29.5585 8.45896 19.7277
1 2.01594 28.6108 21.1236
1 12.9276 0.17277 24.1358
1 7.64843 12.6732 21.0358
1 9.06641 28.3289 4.49328
1 8.70311 20.0398 22.9668
1 9.66089 7.01754 21.5722
1 2.36125 2.1069 5.25981
1 6.19233 15.8123 1.4237
1 15.1299 23.6918 3.2341
1 4.51965 22.5147 13.6265
1 23.2998 24.84 16.7092
1 15.4204 10.7339 12.1273
1 6.45371 19.3747 13.6025
1 20.8919 17.8201 3.59795
1 10.2049 0.717788 7.63278
1 9.23575 22.5921 15.8824
1 7.91114 25.9212 5.18831
1 1.76004 15.3606 18.6355
1 18.113 25.6048 15.2691
1 22.1523 10.0573 12.8877
1 24.0541 11.5236 29.8858
1 17.3942 17.51 16.9823
1 13.7924 19.0918 28.2138
1 28.0047 6.70812 20.5696
1 21.2185 27.1603 21.9074
1 11.6754 10.8608 11.8619
1 21.2133 13.2182 1.71581
1 26.2256 21.2967 15.06
1 13.5253 23.0206 19.1207
1 22.0076 18.4844 12.6568
1 6.60427 9.20364 9.63409
1 3.07956 15.1442 4.66991
1 4.37666 22.9762 4.99937
1 11.9291 14.4155 27.4139
1 3.36222 17.9386 21.1498
1 9.65203 5.92692 26.7279
1 20.4809 24.2117 12.4949
1 24.245 1.67079 2.50152
1 14.5633 9.10535 24.9087
1 11.6019 5.40265 4.6022
1 17.2924 24.7481 0.952703
1 21.6568 23.2058 30.1812
1 22.6569 20.8984 4.26931
1 3.93337 22.6275 12.2377
1 22.0474 15.8208 20.1659
1 12.4856 14.9379 22.4093
1 0.634495 3.53868 28.5464
1 16.7358 15.8579 26.114
1 1.52923 13.2572 21.7108
1 20.2208 3.38698 10.5735
1 12.0681 21.0813 0.664188
1 7.8055 29.7352 26.0811
1 25.7894 4.0652 0.822615
1 11.8382 7.08167 9.9322
1 16.1759 18.9806 2.14917
1 3.73661 24.1473 4.51962
1 24.5644 23.4114 24.1767
1 15.724 5.78604 5.8673
1 16.9751 17.4396 23.2189
1 6.10096 9.83317 10.8632
1 23.7173 4.97292 21.1438
1 0.754277 13.9948 14.7733
1 13.0158 4.8393 11.6982
1 6.28621 13.5677 24.0539
1 24.0969 1.5605 14.3516
1 0.807876 21.665 30.1511
1 13.2594 24.0071 5.26418
1 9.90954 5.52369 24.3123
1 5.20335 16.512 24.4864
1 20.2043 13.2934 9.64834
1 16.0444 15.3961 6.59601
1 3.70189 4.45795 14.8685
1 19.8586 24.6425 11.2916
1 13.3758 24.3351 16.5965
1 11.8036 6.60818 28.662
1 13.6748 7.48644 26.6602
1 7.44595 4.13741 26.3837
1 26.9264 29.65 11.2725
1 5.92188 17.2157 1.44691
1 2.33308 11.0719 13.0331
1 19.8637 2.61251 27.1968
1 28.7951 16.7255 3.09095
1 29.7397 7.05984 10.6027
1 1.66541 10.0935 24.1095
1 19.5727 21.2451 12.2871
1 14.2511 9.87986 23.7371
1 2.96476 26.9685 28.5666
1 12.9062 20.8386 3.74033
1 18.8532 0.785678 6.43148
1 25.0281 15.9425 11.2532
1 10.9462 20.2598 14.58
1 3.62948 18.4939 12.4552
1 19.5289 20.9545 30.35
1 29.8383 0.436267 6.23468
1 23.708 10.5599 25.7607
1 24.966 30.1043 1.17591
1 3.09038 22.6983 18.9397
1 8.95075 1.44143 3.00394
1 6.90108 27.6098 24.7322
1 29.0782 1.90137 16.943
1 3.94339 21.8592 23.9288
1 30.4168 8.9101 22.7654
1 24.8605 22.1913 28.9288
1 13.2277 14.678 5.84496
1 4.53088 2.40863 22.3595
1 12.2755 4.57302 10.2011
1 29.7564 20.7587 17.8957
1 22.5437 22.4251 0.819488
1 29.0588 26.979 12.1523
1 6.41146 18.1275 21.4955
1 29.1839 13.3474 22.6836
1 29.7427 23.2225 27.8566
1 2.77956 5.40284 0.710357
1 5.76351 30.2571 26.9078
1 4.41851 19.8941 22.0735
1 28.166 21.3213 13.1393
1 12.6062 18.3923 22.932
1 24.8394 10.7453 20.1923
1 5.52401 1.23296 11.3956
1 1.80067 17.7174 1.02912
1 13.4753 23.3909 29.3529
1 12.5413 26.7498 16.5443
1 14.1153 16.3807 16.2535
1 3.94114 21.5815 8.47576
1 20.8796 22.233 26.6384
1 22.2357 13.5392 19.6722
1 7.46676 29.2858 29.307
1 0.402249 22.973 9.59741
1 6.73576 17.2617 28.7737
1 21.4404 5.51448 21.3939
1 21.486 22.8185 7.49262
1 4.36426 13.6404 1.28969
1 14.4478 14.5021 10.6799
1 28.9987 10.5201 26.9092
1 17.2636 22.2566 8.19302
1 29.8138 5.03809 25.6621
1 11.5721 1.33344 13.3581
1 11.631 17.1553 12.6819
1 8.42987 13.5745 2.6403
1 2.33682 16.7559 5.9417
1 17.6079 11.4076 8.78165
1 5.92923 15.6265 2.74958
1 17.5132 21.415 10.6978
1 13.7367 3.3836 14.0849
1 24.643 3.56345 2.87481
1 3.04576 16.7686 16.8776
1 17.7359 25.4548 2.20652
1 29.6466 17.0203 27.6041
1 26.2322 19.5164 27.9152
1 3.95763 3.34304 23.795
1 18.2597 19.1766 15.2629
1 19.8983 25.0657 7.85388
1 16.2251 13.0029 24.237
1 15.4868 27.2391 19.3164
1 12.7267 30.6909 12.8218
1 8.95896 28.4088 28.9121
1 22.2924 21.1625 14.2211
1 11.7079 17.0512 20.4924
1 29.9009 19.235 11.5717
1 21.4903 8.55606 4.00521
1 25.3055 19.2483 26.4687
1 6.22466 0.896633 8.97755
1 15.7774 7.2516 22.5164
1 26.0589 9.9398 29.2052
1 20.5071 11.8732 25.8793
1 23.2223 29.0036 19.4172
1 25.1285 20.6432 8.85564
1 15.9946 12.9879 11.7536
1 8.87391 19.1197 16.9466
1 2.01168 16.6872 26.0483
1 8.32671 29.1899 8.91032
1 6.50502 9.18048 13.6752
1 25.7609 8.69489 12.0438
1 0.239073 23.6259 11.6156
1 5.75541 3.74167 8.60495
1 13.1549 26.7692 19.9461
1 17.9461 27.3706 13.8392
1 25.2126 23.6832 19.1037
1 22.4041 7.90334 17.0916
1 28.8657 4.21282 8.67913
1 6.16206 23.4255 26.3681
1 16.6567 7.5142 8.00457
1 21.2615 5.45716 27.5705
1 4.45107 13.2198 8.9259
1 27.7799 29.1116 16.671
1 15.669 2.65985 24.2365
1 29.1919 16.7465 5.57014
1 8.06505 21.1669 25.8587
1 26.2779 29.3728 8.96266
1 0.737351 12.5052 15.0999
1 15.5446 20.5023 4.95475
1 24.2037 4.42944 25.2063
1 26.658 30.4229 16.8772
1 5.24463 26.2476 12.3497
1 19.1572 1.43377 21.2648
1 5.6349 15.054 30.354
1 9.55539 2.73016 21.6831
1 5.04356 3.1308 19.9177
1 17.7248 3.60117 26.202
1 14.9902 24.4445 12.2483
1 23.0648 16.7841 20.0662
1 10.8086 9.07141 28.4933
1 5.24221 19.119 10.7267
1 15.8615 6.70148 1.1842
1 13.5316 30.109 15.1934