4096
Atoms. Timestep: 700
1 15.7225 8.68178 7.94427
1 18.0166 23.3077 22.2132
1 12.7293 8.96414 2.51958
1 20.4245 6.41965 20.5542
1 29.5451 23.1265 4.98284
1 8.69846 13.3086 29.2492
1 26.9328 3.04945 9.34948
1 25.9548 5.2414 15.5049
1 16.8502 29.3394 6.30911
1 26.3652 11.5724 27.1789
1 18.5602 8.0045 14.5812
1 0.353493 2.07158 13.7076
1 4.39243 1.54053 21.538
1 19.7306 29.5595 0.640415
1 25.7384 28.3925 12.5905
1 3.23326 28.4126 25.8032
1 27.0008 29.233 12.9403
1 10.9944 16.6649 26.5644
1 3.9278 9.38801 28.6174
1 5.28026 0.520782 21.8186
1 10.6821 27.2694 10.5114
1 16.278 23.7886 14.8441
1 15.9988 16.7605 16.1415
1 3.84377 20.3482 26.0275
1 17.7344 11.3735 9.00396
1 25.3626 15.8955 17.8972
1 21.3652 0.903907 6.73446
1 17.7558 6.32744 12.6479
1 19.8018 15.2293 30.3113
1 3.25044 22.7551 25.8677
1 7.2596 19.1364 15.0335
1 6.29303 10.1291 3.46891
1 16.9395 22.7956 7.25867
1 13.2184 17.1127 12.9645
1 5.13562 21.3818 8.36372
1 0.818817 27.2306 15.8894
1 20.3101 9.59934 7.95735
1 12.6604 22.4632 27.0952
1 7.42826 14.6696 7.07513
1 28.9832 5.81069 22.8408
1 17.0527 7.62089 17.3298
1 29.6254 17.5276 6.89491
1 8.10356 17.2272 14.3438
1 15.6569 10.5768 16.4147
1 17.7311 28.8733 21.6014
1 17.7389 24.9664 19.758
1 7.17927 4.72709 25.143
1 16.6812 6.78832 20.8545
1 13.195 0.761857 14.0339
1 18.9062 5.03526 14.8948
1 16.3075 29.0932 2.82416
1 18.4298 3.24627 10.8129
1 8.31666 15.8524 13.4528
1 18.1967 9.38169 5.41923
1 12.9341 26.9395 24.6888
1 25.2013 7.28164 18.2046
1 5.22831 5.9048 15.782
1 14.3005 24.6078 5.14488
1 0.59006 29.3391 1.15448
1 0.917373 10.3981 26.3304
1 2.26604 2.70222 17.6367
1 7.06995 25.3385 5.59061
1 17.5319 12.1517 7.65478
1 7.33067 6.73213 7.67307
1 1.75609 5.93833 6.35723
1 26.7803 5.09241 19.197
1 19.4233 24.1311 3.56595
1 24.6329 20.5295 12.8508
1 7.88063 28.7106 19.6936
1 23.0264 7.99021 6.97981
1 3.68966 24.1782 26.0321
1 19.2747 5.99769 9.21462
1 25.944 1.16515 3.82211
1 12.3644 29.8443 11.6632
1 24.7432 6.77872 5.7747
1 2.69568 3.44404 2.40965
1 8.4227 30.3887 10.3852
1 29.2546 0.606661 24.8273
1 5.25951 12.3299 20.3595
1 8.50423 27.5384 25.4463
1 18.2347 3.09941 2.54483
1 11.9432 12.6572 22.1608
1 15.7587 1.39708 15.2882
1 0.587304 17.986 28.4532
1 24.4452 7.54591 3.37559
1 28.7966 28.7459 6.48031
1 23.5749 6.78089 25.1027
1 24.2283 1.48032 1.75951
1 11.5597 6.53453 24.3875
1 2.97095 5.91617 15.7794
1 20.1358 2.6005 13.0164
1 15.0903 9.73234 8.91003
1 26.9991 18.2821 23.1969
1 28.7876 15.6641 11.8388
1 26.3398 22.156 0.86367
1 20.8874 0.601581 13.8581
1 22.7786 20.5576 9.91918
1 9.90109 2.95621 5.80024
1 24.9777 4.957 16.7318
1 7.69755 14.9738 25.105
1 8.19526 14.8257 12.4262
1 29.8271 22.1638 20.5521
1 21.2764 0.378362 18.6815
1 13.8655 7.08199 10.9152
1 25.7873 19.5704 20.0942
1 0.366026 20.9501 4.56989
1 2.3064 8.76414 13.7665
1 4.31133 28.0653 26.8866
1 13.9694 4.0751 14.1356
1 8.01599 27.1443 13.9429
1 14.1067 15.4258 18.7667
1 11.7468 19.365 29.6118
1 25.0818 3.65817 17.1524
1 24.197 23.4503 28.9537
1 2.53682 11.1355 16.4606
1 23.0947 10.4009 9.67836
1 11.2795 27.6322 9.20259
1 0.780857 21.4767 3.26899
1 7.94634 28.6264 5.76623
1 17.0281 10.1885 6.75269
1 26.0442 1.03161 25.1929
1 24.3262 20.3036 28.1264
1 17.3604 3.41185 15.5405
1 26.2065 1.9247 16.0108
1 5.16925 8.92448 28.0524
1 17.555 5.94016 15.8206
1 1.36534 17.4345 5.29253
1 15.0581 18.6264 19.7149
1 19.4726 20.0499 12.8973
1 0.24867 0.783365 10.2008
1 0.729403 17.5575 14.7874
1 14.5371 10.8935 6.98374
1 7.00465 20.5488 10.9863
1 7.71579 9.12023 3.00672
1 1.26315 26.3082 8.04705
1 17.1162 1.96186 21.2742
1 13.484 15.9756 7.00607
1 17.8821 8.24178 18.312
1 15.5292 15.4388 21.8468
1 22.5838 24.1238 2.22439
1 17.2688 28.865 28.0659
1 13.7052 25.7181 24.1836
1 15.2421 27.9947 29.0014
1 8.98421 27.2147 13.0857
1 28.4265 25.4082 13.7802
1 24.6404 25.7164 16.5439
1 2.26897 11.2255 13.9149
1 24.2624 9.39498 1.59834
1 20.2002 8.85498 5.36171
1 19.0364 1.93198 16.201
1 28.991 17.9822 21.0098
1 24.6844 25.7277 24.3702
1 18.6658 8.31025 2.54706
1 10.2848 25.8157 0.190671
1 7.29582 23.9929 9.40774
1 1.56259 6.75167 17.8532
1 5.26493 18.7623 8.69725
1 8.00528 6.54583 28.3841
1 11.2294 29.1327 10.8324
1 26.5204 12.384 26.1035
1 22.2664 23.3507 3.50453
1 3.0968 26.9106 6.94075
1 2.67743 21.8429 11.7665
1 13.8554 4.68542 30.0874
1 12.9539 2.25039 7.79095
1 30.0378 7.81934 14.073
1 17.2531 30.035 30.3197
1 18.4091 16.6214 20.2266
1 14.553 9.18725 12.4196
1 11.7087 13.4364 25.7092
1 3.14036 25.9537 29.3163
1 10.6786 7.44691 19.6434
1 10.3532 15.7284 14.4184
1 28.6632 12.5963 14.8218
1 23.2321 11.5672 14.7088
1 16.9843 12.8706 14.4541
1 4.27605 19.2444 1.97976
1 10.2417 0.319988 5.02301
1 23.2325 17.8675 18.2721
1 2.29419 12.9918 4.92397
1 9.22953 6.34346 15.1775
1 15.0243 12.4306 23.1383
1 3.64909 18.5985 22.9102
1 10.3079 3.758 3.60764
1 2.45793 22.0466 6.72484
1 6.64053 3.33003 9.51729
1 18.3771 1.81945 8.12681
1 3.45318 21.1336 14.4778
1 22.4647 11.1555 18.198
1 28.0752 5.07788 6.93437
1 19.8786 18.4076 7.48735
1 5.47202 10.5802 0.361757
1 29.6979 7.6462 21.4058
1 11.7781 7.59849 2.37587
1 17.2737 19.6972 22.301
1 25.2751 1.83879 4.85089
1 1.69048 19.8973 8.19226
1 1.83006 16.076 13.1895
1 5.25182 3.91348 2.12326
1 13.3282 28.8714 28.6016
1 29.7474 29.6549 27.1389
1 4.85335 28.8757 7.78193
1 16.3049 25.1986 3.61205
1 8.94076 1.43888 8.05615
1 0.318777 15.6244 2.65597
1 16.2807 2.50097 18.6976
1 24.1289 19.0074 27.6633
1 26.6401 17.5017 29.8878
1 24.2748 20.411 18.4971
1 5.14973 8.01419 25.3254
1 21.0746 3.84772 8.51851
1 8.2676 5.241 28.6848
1 21.7501 28.3263 13.9196
1 15.4751 11.7263 6.08628
1 5.47529 22.0856 12.5943
1 9.93063 13.0648 13.3781
1 24.9569 18.4088 26.4528
1 10.7657 1.53771 24.0643
1 6.06869 5.82935 2.74075
1 8.12687 6.84048 3.32392
1 22.7515 14.9287 2.91192
1 26.2144 13.4946 14.9035
1 27.9048 7.39995 17.195
1 6.38064 18.6922 0.650421
1 24.038 17.0933 3.87647
1 28.6549 14.0879 17.6682
1 16.3394 14.833 13.4889
1 26.5452 7.0794 23.8382
1 6.25239 10.043 25.7831
1 24.3365 24.9324 1.14976
1 10.5759 6.30518 20.8311
1 13.8271 15.9353 13.538
1 13.4151 21.3232 17.0142
1 29.7383 10.8642 6.60477
1 4.16899 27.6627 7.88318
1 29.448 21.3335 15.8168
1 29.4823 3.04819 9.01822
1 7.10117 13.8795 12.3004
1 21.5188 6.84998 4.67654
1 27.6893 14.7411 1.60751
1 15.4628 27.3878 23.3118
1 15.8352 2.87388 25.3469
1 24.11 9.87142 29.3735
1 16.4477 25.5102 2.19959
1 17.791 14.5589 1.54258
1 12.8788 15.3346 0.252262
1 6.38072 18.3791 15.9601
1 15.0168 22.7984 0.174637
1 27.4945 27.3375 19.8221
1 24.6965 29.7979 18.2678
1 27.1671 18.2325 3.98875
1 9.51207 8.15368 19.8911
1 18.939 20.4804 29.3626
1 6.71611 0.774868 21.3138
1 1.57077 12.6601 10.0083
1 4.24887 25.5071 19.7333
1 18.6299 4.17035 28.3313
1 1.54864 6.81415 27.1612
1 0.320998 1.6832 12.4855
1 19.6849 1.20565 8.61378
1 8.66562 13.781 25.563
1 7.27506 26.4445 4.9991
1 20.8609 17.4092 23.7297
1 28.8031 16.4281 28.3463
1 10.4168 9.74443 11.9483
1 9.81226 18.6329 16.5703
1 11.4682 1.23088 29.0631
1 6.17518 2.54365 2.71734
1 27.4972 2.2059 12.444
1 0.908363 27.23 29.6199
1 5.40642 5.42068 4.14694
1 13.0882 12.0061 4.61134
1 12.5698 11.7771 18.4265
1 1.74557 17.8011 24.7829
1 29.792 24.4943 21.6164
1 11.185 14.6891 3.79667
1 29.4782 3.38324 5.49591
1 6.30888 2.76375 6.56461
1 4.44114 18.1205 20.5021
1 11.552 6.70387 15.6106
1 14.3089 18.8056 14.3833
1 28.8847 24.2005 29.1671
1 13.6284 6.49476 1.12453
1 24.5596 26.9856 5.99433
1 25.1688 4.40611 14.7775
1 13.2308 4.00547 19.6861
1 21.3416 25.3088 26.1937
1 23.7388 20.874 29.3607
1 19.6543 25.7504 4.30517
1 16.6629 6.97907 2.41777
1 13.306 14.2746 29.7992
1 18.706 23.7895 14.6246
1 25.0518 14.7359 22.5954
1 21.0534 15.817 17.1894
1 26.8129 9.02123 22.9322
1 2.15322 14.7366 12.7097
1 11.438 11.1292 21.8808
1 12.5714 28.5636 4.12443
1 13.6107 18.4183 22.4353
1 21.0853 19.9302 12.9113
1 10.0161 17.2808 12.5947
1 2.39472 9.62376 15.8998
1 27.3602 14.4654 29.4397
1 5.32949 20.6532 12.9457
1 9.09177 19.8059 8.13827
1 27.574 27.2064 4.91499
1 8.72909 24.6255 23.1066
1 25.0762 20.9823 28.7398
1 10.382 23.183 22.3241
1 20.6113 25.2688 18.8688
1 22.3823 12.3576 15.1866
1 26.2745 6.85476 10.6826
1 21.6381 7.20125 20.1248
1 27.5829 20.7323 13.5879
1 19.8614 6.63575 7.9592
1 6.64726 29.2102 25.0427
1 18.1263 4.09139 22.83
1 10.6721 9.03615 17.6198
1 23.0487 27.0507 18.1472
1 25.3284 16.649 20.9687
1 20.5975 15.4795 14.4949
1 26.1076 8.74118 14.0742
1 2.79332 16.1467 23.2526
1 9.17338 1.38253 21.0067
1 21.6466 18.6433 18.4908
1 14.6942 22.2524 11.3597
1 6.73626 29.3225 16.4521
1 4.70275 16.7216 1.46328
1 6.7281 17.8919 25.4244
1 11.5434 3.53475 17.1785
1 22.6162 27.9555 17.1641
1 27.1598 0.310522 20.5412
1 11.9098 4.14731 20.5563
1 24.1078 18.5735 25.408
1 17.0372 26.0685 4.13645
1 3.60252 2.22192 6.63184
1 16.3946 27.8767 1.04827
1 18.5368 11.2279 21.8139
1 18.9109 12.0906 4.38051
1 27.5069 23.6128 3.98427
1 0.424398 5.40955 15.7752
1 18.0676 22.5482 28.4698
1 1.20525 26.3372 20.7915
1 4.89746 3.26471 12.7397
1 12.008 28.5775 18.4719
1 26.7746 10.9422 8.33865
1 30.0894 12.8325 22.812
1 14.9613 20.9786 20.1129
1 26.9566 11.9741 10.9159
1 4.6578 17.7817 9.50779
1 10.1017 8.85801 7.08411
1 14.386 24.4982 2.34037
1 6.16673 14.5631 20.5955
1 21.5072 1.92961 21.4699
1 16.5915 12.2024 3.76982
1 7.62793 6.48955 16.6953
1 3.26457 0.882472 18.4318
1 16.8106 23.6464 25.0738
1 11.2995 27.6458 1.33634
1 18.0199 4.24718 4.48318
1 3.11281 13.0177 19.7477
1 28.3611 28.6249 29.6226
1 16.3298 28.9911 12.5161
1 25.9677 30.1765 29.2507
1 11.5986 18.4221 14.9748
1 15.3849 20.4681 28.3413
1 8.24986 24.4923 8.47317
1 21.5915 0.36831 2.48796
1 11.4678 0.689954 17.917
1 14.1284 28.0141 0.650951
1 8.21985 9.03886 17.248
1 19.4539 20.0228 24.4897
1 5.16477 6.96653 19.1567
1 5.0462 10.548 18.0644
1 4.45168 17.0608 5.21485
1 11.906 2.17201 4.59309
1 20.8422 14.5931 17.2667
1 21.9745 21.2633 24.8903
1 25.1087 5.04597 2.38738
1 9.60318 14.5008 1.85004
1 25.3461 2.88121 15.9098
1 9.75037 8.97893 29.602
1 4.49836 4.05682 0.92478
1 28.2376 18.2992 25.5237
1 22.6497 27.5059 10.7359
1 5.16688 4.26388 25.4268
1 20.2462 3.65835 7.20188
1 11.8672 26.04 26.9177
1 6.0371 13.9594 13.2234
1 10.7889 29.7177 24.7389
1 17.8382 19.2361 16.5795
1 2.47171 10.5468 22.4682
1 18.9678 2.47517 18.9672
1 23.9401 23.0151 26.4473
1 10.2974 10.9485 11.0755
1 10.9207 25.8635 4.10579
1 22.9177 15.4471 26.865
1 26.6973 27.1919 16.5181
1 14.6869 21.2501 6.3989
1 21.7793 19.928 19.109
1 7.00761 30.1573 22.6538
1 10.7658 4.89218 6.20338
1 18.0339 27.4883 30.2387
1 2.20916 9.95395 10.7525
1 27.4748 9.03594 2.37881
1 5.26157 2.50928 27.5281
1 27.8553 2.4563 25.8375
1 0.728165 5.94745 17.2078
1 19.7542 6.02287 11.6078
1 5.44287 12.914 19.1031
1 9.57266 26.1616 5.04164
1 0.900011 12.4737 25.1957
1 26.7122 20.4333 18.2386
1 8.70131 23.6373 0.164504
1 20.6994 15.0887 6.89541
1 26.9323 0.669068 24.1024
1 2.98234 6.89315 24.9523
1 0.656545 27.1346 24.9999
1 9.20765 6.36418 22.6931
1 26.2104 8.39738 25.7941
1 10.1191 21.8725 5.21145
1 26.9502 23.0641 1.92118
1 16.3355 25.1636 6.42294
1 24.1543 5.37861 25.5863
1 21.7128 21.9152 11.6434
1 24.9792 29.0172 7.28521
1 15.168 11.9742 25.2887
1 12.9082 25.0213 20.2985
1 21.1968 30.2033 12.3117
1 8.48974 26.8905 8.29104
1 14.4776 19.4346 1.34412
1 19.4845 11.85 24.7278
1 23.0235 17.842 29.6425
1 25.3101 11.0327 2.7315
1 17.4702 23.9329 6.6155
1 7.72568 2.53341 28.638
1 7.3871 15.212 9.90907
1 7.47862 14.5129 16.8873
1 3.85353 17.545 21.7799
1 6.30339 27.9505 17.4977
1 5.2453 16.7169 9.44922
1 24.209 5.26266 10.8245
1 0.76395 5.83215 27.8008
1 10.0906 16.8303 11.2366
1 2.33498 11.0578 27.88
1 16.9833 11.3918 16.3122
1 26.2458 17.0516 15.824
1 1.83774 2.72378 3.64988
1 4.68515 19.5759 4.84873
1 23.0357 16.8976 1.63933
1 15.0585 0.638989 20.0121
1 20.0247 2.79123 26.4518
1 13.2581 10.1738 25.4494
1 13.9957 0.293963 3.45458
1 4.87804 23.7215 8.00131
1 7.8875 11.8782 12.9111
1 13.7917 21.8001 1.92339
1 12.1007 6.6901 5.65719
1 20.9652 24.0977 23.9105
1 10.208 4.12018 23.3659
1 5.26645 3.76573 30.1209
1 15.6619 7.34388 21.6843
1 27.1133 13.6398 22.8018
1 21.4711 1.36078 3.4838
1 13.7823 4.88288 1.11849
1 30.2971 16.3854 6.68447
1 21.4324 28.9403 22.9125
1 23.0464 4.14704 13.4764
1 18.4851 23.9436 19.2152
1 29.9437 30.1463 3.20961
1 6.78493 21.9168 1.84149
1 19.962 25.3739 22.2736
1 16.8122 10.2344 25.8977
1 6.66424 17.7754 21.708
1 14.1505 20.2048 3.56237
1 16.2475 14.5832 9.55477
1 8.06568 20.5068 8.80408
1 28.7535 11.5566 13.8502
1 23.834 7.8719 14.8299
1 18.2406 22.5914 16.7028
1 12.6315 12.4226 25.776
1 20.1556 0.844553 19.5714
1 29.5167 12.0946 28.5084
1 14.5972 25.9488 23.0341
1 12.6906 27.9104 22.3122
1 9.95858 15.4464 28.7395
1 5.39712 15.4595 18.1226
1 27.7042 16.9019 13.4855
1 15.0154 17.9812 24.3518
1 25.1945 9.49699 13.3484
1 5.6342 14.7249 23.4949
1 26.3151 30.0926 0.430428
1 14.6677 19.7436 8.83311
1 12.9987 16.6821 24.4676
1 14.1689 4.19332 10.8136
1 1.07286 11.0941 13.0887
1 5.85735 9.00288 0.258521
1 27.2792 25.8545 8.49492
1 15.4327 15.9444 19.1822
1 14.0247 3.18245 5.57967
1 13.4629 15.3934 21.2578
1 26.008 7.17448 13.7104
1 26.3997 20.6938 26.1306
1 17.852 2.0065 27.1252
1 21.8066 21.9597 14.4752
1 12.5415 16.8589 0.174494
1 20.8376 6.92551 1.14011
1 22.8868 6.4767 12.0831
1 4.46833 14.5739 5.67801
1 25.3242 3.3149 25.246
1 25.0859 4.92529 27.9783
1 12.8179 29.9812 16.5002
1 13.5358 20.9811 4.86717
1 29.516 27.7392 17.8319
1 15.4394 9.42898 29.3338
1 13.2474 12.1651 2.26733
1 18.9507 21.0559 17.7922
1 6.38536 25.0061 21.2958
1 29.9148 27.6852 11.198
1 3.57827 4.66703 27.1068
1 2.27671 29.5448 6.18674
1 11.6432 12.7331 11.1128
1 22.1071 21.589 17.1031
1 5.63625 28.8807 1.61284
1 19.2693 20.9971 20.2836
1 11.7536 4.55728 18.2635
1 7.34069 0.319236 20.2881
1 18.8303 11.2357 2.92645
1 20.7185 6.82776 2.55836
1 23.4671 4.33613 26.1873
1 17.6134 7.47222 26.4428
1 25.1035 30.0086 26.9722
1 22.5213 0.924228 18.0177
1 14.2428 2.47033 17.039
1 1.13357 11.365 24.379
1 27.7067 17.4034 20.2427
1 10.3577 19.3764 11.5933
1 0.906548 19.3594 28.7904
1 27.3516 23.023 20.7624
1 25.7676 14.3531 4.60629
1 3.85968 28.8846 27.9188
1 0.360549 17.0317 24.5089
1 5.5732 15.2957 13.4277
1 22.7179 14.5017 5.19428
1 22.749 1.14562 23.0793
1 9.25435 2.59504 16.213
1 13.9331 19.2605 7.5357
1 25.0553 23.4165 11.8848
1 17.414 1.75556 23.5159
1 24.3924 7.15217 8.64012
1 2.93962 18.1237 27.2809
1 13.6795 11.9352 29.5628
1 26.7629 19.4459 3.18411
1 10.5751 17.324 29.1683
1 26.0442 14.483 30.2116
1 17.2595 23.3933 5.10812
1 12.3209 22.6715 4.00423
1 2.02864 4.73287 2.04204
1 25.2145 16.9448 30.0583
1 18.1362 4.09067 30.0378
1 28.9293 16.7103 17.5205
1 6.56735 15.1064 2.60053
1 3.40027 25.5821 16.4439
1 2.15706 24.3887 5.9064
1 9.81303 6.63268 5.08703
1 29.0528 6.37924 26.9395
1 3.41116 12.2786 16.3475
1 30.1027 0.429791 26.0166
1 26.4511 22.119 26.9811
1 15.2914 12.2038 3.56342
1 4.67794 29.5689 2.28966
1 10.6752 28.1875 8.16406
1 6.75368 25.9213 16.7889
1 27.7616 8.0619 25.7234
1 18.6969 18.1134 0.719312
1 12.2774 18.132 13.35
1 16.2207 25.3644 19.0823
1 10.7492 29.0588 28.3557
1 4.71798 5.50772 19.145
1 1.5792 3.02558 22.1721
1 1.68515 17.2236 28.9248
1 16.3042 17.1562 24.5232
1 0.492665 7.36408 0.496955
1 28.0988 20.5682 20.3214
1 27.4889 29.9917 2.37197
1 29.9864 0.662084 23.4222
1 8.21325 23.2421 27.0432
1 13.3451 2.10642 4.80164
1 28.0438 19.6848 7.74744
1 16.0696 13.0739 9.7732
1 30.4024 16.4792 20.0209
1 30.2148 0.217706 15.5889
1 6.50339 4.48271 30.0026
1 8.88403 20.661 1.95447
1 16.712 26.3446 25.6263
1 3.97647 16.4176 0.469299
1 16.4687 0.998378 0.941398
1 6.50374 11.1626 15.8107
1 9.62985 19.4264 4.529
1 24.6491 19.0303 21.0145
1 29.651 1.33243 0.614598
1 20.7661 0.265003 1.28305
1 6.33462 18.7635 27.4304
1 28.0935 23.9059 18.0949
1 6.47075 8.65021 25.652
1 21.9332 28.5716 10.4253
1 29.0775 8.21815 23.7977
1 14.8634 21.6662 14.7298
1 11.3198 9.84439 9.06838
1 21.0103 8.31288 0.578123
1 30.0834 20.3511 2.19414
1 30.4036 6.06617 22.5126
1 4.92472 3.08985 21.7639
1 20.4917 25.8936 28.9347
1 17.729 17.5008 9.55604
1 13.9194 17.0205 21.1568
1 7.03805 6.78671 27.3605
1 6.99801 22.0055 10.7271
1 28.5147 21.6969 21.0935
1 18.983 15.4713 1.1905
1 1.23999 24.6558 14.7405
1 27.6116 27.0573 7.55572
1 11.3549 12.5722 29.1877
1 20.8967 0.738361 21.9876
1 17.0276 8.44034 8.43514
1 18.9159 29.4518 4.21079
1 12.5938 22.3344 6.28425
1 22.8746 6.8572 20.8634
1 5.02884 18.5345 1.20151
1 15.9905 8.90549 21.8073
1 25.7317 0.760269 15.9536
1 6.43457 18.0947 3.79658
1 19.5747 28.5761 15.1444
1 23.5098 11.3079 8.69777
1 0.300868 2.85549 16.1967
1 16.9137 12.2515 0.768483
1 3.85708 2.61131 4.17885
1 27.4361 10.1869 20.6708
1 14.8439 12.449 8.95119
1 3.3066 1.4364 14.2687
1 28.7733 10.6074 1.11973
1 22.9591 23.2796 19.2716
1 5.84935 11.6022 18.3565
1 16.8332 11.7708 6.14648
1 0.546988 22.2722 21.9549
1 17.9625 9.86793 20.4238
1 23.6319 4.47065 27.7617
1 18.5536 30.2065 18.3136
1 11.314 28.0506 4.3041
1 29.3796 1.76296 8.17141
1 16.3391 25.9887 7.79979
1 15.8715 9.89979 10.1531
1 8.60222 23.8373 7.26558
1 28.8463 0.297631 13.0901
1 11.798 13.5746 9.65329
1 16.3532 5.56124 25.0147
1 11.5067 30.371 2.23191
1 15.3832 28.2897 8.72167
1 12.8915 10.4742 11.4607
1 6.86233 10.6262 10.8014
1 0.283298 28.1317 0.25907
1 23.2116 2.40727 5.49618
1 23.3598 1.30908 11.2847
1 12.5734 8.56762 29.121
1 5.35871 24.6904 29.6967
1 10.1744 20.8067 2.60883
1 9.7607 2.56175 26.8867
1 19.8744 21.0722 16.7225
1 28.9261 7.36462 14.9074
1 1.39502 6.39019 15.0352
1 26.6578 27.1312 1.24563
1 15.397 20.0343 6.58162
1 6.56113 10.7068 27.2124
1 2.40212 23.2661 11.9972
1 5.89359 16.3284 12.4761
1 16.7461 8.47244 26.9767
1 19.6099 11.5281 27.3532
1 0.192403 10.3043 24.6805
1 27.297 30.2613 28.6974
1 4.38359 3.89175 24.1456
1 26.2327 20.744 5.37147
1 0.25562 1.77039 7.26798
1 18.9118 14.3685 13.7019
1 28.6814 13.2427 11.8891
1 19.5083 11.7709 19.387
1 23.3379 17.2611 4.99566
1 9.37672 29.0866 27.1657
1 27.0183 1.07245 27.5867
1 15.0563 5.3761 5.07977
1 19.6127 1.73692 28.8929
1 17.9016 7.60789 12.3522
1 4.02371 18.4039 5.56346
1 6.18455 16.6547 26.0505
1 22.2289 25.4291 14.8064
1 15.2786 23.0622 15.3774
1 7.2151 25.025 25.7304
1 0.732512 27.8232 20.3625
1 14.8689 11.7294 19.3552
1 16.5756 4.00012 25.0993
1 5.94783 16.6776 28.7404
1 4.33462 3.09997 5.48106
1 28.0768 9.54066 23.3984
1 25.6001 23.1735 3.87479
1 15.9076 13.003 27.3325
1 13.3723 9.10263 21.6683
1 9.2771 1.09682 16.6493
1 13.4427 21.1097 29.5651
1 12.9286 5.05124 14.3168
1 25.4403 27.7555 25.8407
1 9.37468 8.93065 4.82111
1 13.9426 27.095 17.831
1 26.8056 28.2699 25.5027
1 23.6553 15.1214 0.410977
1 27.1569 2.12965 3.22367
1 8.73987 9.9972 9.05602
1 18.7251 27.5954 26.831
1 11.7229 3.09745 21.2591
1 21.0884 7.84886 24.9296
1 10.7499 5.56944 13.7356
1 22.6152 29.1214 6.36838
1 28.5985 9.13164 12.6546
1 10.4395 12.7495 30.2085
1 6.37084 6.80901 15.9973
1 19.1968 27.4109 0.726755
1 4.28811 2.42239 18.7355
1 22.6132 1.24389 6.63149
1 26.1853 1.72892 13.1379
1 19.0417 25.875 13.6092
1 15.8591 11.3646 22.3021
1 24.0984 14.0541 21.9781
1 18.8195 16.7113 4.59687
1 28.9343 15.2938 4.41372
1 18.1321 19.3527 28.6057
1 2.36902 19.762 7.01812
1 16.9531 10.8431 13.3036
1 2.90006 8.13167 19.1802
1 21.2841 5.56926 0.67632
1 27.2285 4.22355 22.038
1 2.76864 14.6109 24.2532
1 13.2591 6.43674 12.6654
1 2.96466 4.34741 20.3024
1 30.2398 7.70276 29.0314
1 29.9486 7.03211 25.8465
1 5.88113 16.1579 8.13669
1 11.2523 17.9585 20.8045
1 26.4402 2.51274 22.2352
1 2.82677 1.81333 4.34839
1 21.5242 21.536 13.2061
1 23.5565 12.606 9.17832
1 9.83658 22.6692 16.5773
1 23.5712 2.84461 28.2407
1 1.34958 5.41859 14.0344
1 3.32762 9.34171 16.9125
1 22.4256 5.1771 17.1367
1 24.7463 14.4777 23.9726
1 24.1189 5.25743 4.7608
1 25.1457 20.7699 11.5608
1 26.1172 11.3373 1.55231
1 19.5162 20.2742 21.4369
1 19.5163 2.2935 23.9695
1 5.68957 9.71009 21.9562
1 17.9911 7.08988 16.5619
1 13.6808 16.5976 9.29652
1 0.651696 15.1108 14.8261
1 8.21646 22.0568 2.24292
1 8.16582 14.9403 15.6066
1 16.1267 19.3372 18.8454
1 15.4043 2.50212 12.5094
1 18.149 27.5471 6.31003
1 27.4074 4.56008 15.5414
1 27.9511 1.97808 5.81318
1 25.067 11.6204 23.1483
1 9.85808 7.5328 26.7116
1 25.2773 1.3413 20.0973
1 3.99192 19.055 0.218847
1 19.26 10.2878 20.8448
1 25.6971 12.6841 18.7114
1 23.1568 18.698 5.02962
1 16.7604 27.6124 19.6032
1 29.6493 21.609 26.3399
1 11.769 3.19631 12.8631
1 7.18411 15.5904 26.318
1 20.0674 1.69512 1.29375
1 30.1393 9.27535 6.03689
1 21.6294 4.38052 20.1632
1 14.638 26.9779 26.8306
1 4.44867 18.8118 29.1525
1 7.25928 28.2149 29.0514
1 4.17426 27.7791 20.0549
1 29.724 25.7572 27.527
1 21.6032 10.9861 25.4747
1 29.4526 12.5575 8.15266
1 4.29007 21.8567 4.43126
1 14.95 24.8956 24.4484
1 27.3696 2.56782 0.15412
1 29.6496 4.48676 18.1623
1 10.2573 12.2509 11.1918
1 4.6664 7.46196 22.2579
1 0.303081 3.19984 6.66838
1 12.6238 0.523376 1.48079
1 15.6779 22.6481 12.591
1 20.2909 3.8363 13.4303
1 6.5742 26.2058 9.96616
1 23.693 26.0726 0.523079
1 20.2155 7.95902 3.00481
1 27.4168 18.1993 19.1735
1 6.07923 23.7919 17.6537
1 28.1529 11.316 18.4644
1 0.757273 19.2389 25.7848
1 16.5175 23.7521 3.982
1 16.6859 19.5814 1.59527
1 6.81356 12.9381 3.6689
1 6.88653 13.7971 1.90309
1 15.1105 4.82861 2.04143
1 26.9069 19.8175 20.8419
1 9.6859 15.6597 3.06076
1 13.3647 10.27 22.7155
1 26.9623 10.5932 6.76206
1 22.1721 3.597 25.6395
1 26.611 8.85883 28.2218
1 3.77617 9.97887 18.1696
1 25.2423 12.8159 6.84104
1 8.99821 22.5381 7.39098
1 27.1302 15.9148 26.6316
1 22.8217 0.406864 4.59354
1 18.9501 5.06667 0.329439
1 3.64847 26.5363 20.1292
1 14.2627 7.42049 6.02575
1 1.07752 24.0207 19.6405
1 16.4351 20.5099 12.9907
1 25.4357 3.62478 2.20614
1 22.8571 22.1917 3.74056
1 10.8862 13.7508 19.7837
1 22.0155 3.1415 1.87605
1 20.2702 10.797 25.0416
1 15.9479 24.5069 29.1401
1 6.83317 23.0049 16.6341
1 20.5491 18.0774 19.0772
1 24.0001 17.949 1.63858
1 6.46246 11.4867 29.859
1 27.621 4.15312 2.48087
1 3.44647 29.77 22.6002
1 8.66884 25.021 13.3813
1 11.1172 9.20563 15.8757
1 11.3538 15.6612 8.63533
1 12.0448 11.474 11.5723
1 17.2245 0.962118 20.4583
1 4.95931 27.2152 5.37459
1 11.6229 0.624073 4.94844
1 7.79654 13.2323 6.99027
1 20.1506 20.58 10.0124
1 11.5122 21.092 9.41455
1 11.7514 12.4735 16.6228
1 26.383 19.6094 10.0932
1 30.0588 3.95801 7.98995
1 18.4041 16.1767 25.4805
1 29.9016 13.061 25.605
1 9.51854 2.11755 21.9896
1 15.4847 16.782 12.283
1 10.7697 0.819287 12.5756
1 26.3885 15.8656 15.2429
1 20.4281 12.2774 12.7714
1 29.0305 9.9722 22.1429
1 12.6133 9.53395 20.4107
1 0.581197 17.06 27.0446
1 10.6694 5.30428 18.5443
1 26.6841 13.9676 20.5952
1 25.1245 26.7952 3.06189
1 3.59209 25.8711 2.62211
1 23.5637 4.44027 0.524073
1 5.15914 24.4189 13.5614
1 13.5279 6.70685 14.0251
1 29.587 16.2616 26.1762
1 18.4125 2.8518 7.00278
1 22.4958 22.3367 0.595767
1 2.21711 28.2283 12.3153
1 3.73141 17.9533 10.6634
1 13.6815 16.2843 3.97038
1 18.7283 10.7783 11.4839
1 14.9037 18.8417 12.0463
1 2.78191 10.3103 0.479324
1 0.335814 25.7069 24.8177
1 11.4505 22.6353 14.6812
1 26.5438 21.3399 4.00719
1 4.17233 16.0069 6.23417
1 0.784346 29.2629 13.8049
1 6.57524 5.28634 14.0597
1 14.2189 24.5879 11.1922
1 14.4635 15.3273 27.1843
1 2.36407 2.03773 22.7792
1 24.6234 0.812751 24.6588
1 23.9872 11.9701 26.5629
1 17.8558 4.75158 18.3212
1 21.8398 14.3543 7.7689
1 5.79268 30.3217 16.8287
1 23.5583 13.8848 2.02464
1 6.47544 4.69509 2.29522
1 25.6734 26.5868 25.2804
1 19.2369 13.0379 25.4679
1 24.166 17.7509 0.193911
1 22.9234 10.6173 2.86306
1 24.0019 17.4969 7.86176
1 14.8794 13.9088 29.581
1 24.841 2.86724 22.8139
1 8.52146 6.22118 4.46376
1 1.50339 16.6865 30.196
1 9.82254 14.3489 29.8052
1 27.7728 7.94962 18.4196
1 23.4122 16.5224 18.8916
1 3.25398 3.03809 1.09818
1 25.6041 5.9876 19.2392
1 7.86392 8.80537 27.7665
1 11.2964 17.3349 10.4777
1 0.322257 21.1085 19.9081
1 19.4276 18.7945 21.1187
1 27.5553 1.86722 23.032
1 24.4012 14.0373 20.4638
1 21.8359 3.94502 24.2065
1 5.96753 1.97292 12.508
1 21.514 28.0973 2.10323
1 23.0817 19.4011 1.74583
1 6.29578 19.878 22.7939
1 16.4819 27.7253 21.2481
1 29.4745 19.3511 21.0848
1 5.83544 23.5873 7.19048
1 0.999941 1.2496 1.74791
1 1.25217 25.2659 25.802
1 25.9401 27.0173 12.096
1 27.0589 24.6643 15.5105
1 1.30305 24.4827 7.03933
1 14.1744 3.04143 13.0919
1 26.7986 16.5445 21.0619
1 21.5748 24.3483 11.8476
1 8.64095 20.6937 13.5508
1 27.7196 24.7926 19.0899
1 16.761 27.9843 6.75149
1 20.1999 28.4103 25.3483
1 17.6262 17.6454 13.2708
1 18.6381 5.19079 25.3466
1 12.0194 6.5611 27.0425
1 25.2241 22.6553 26.1191
1 7.62921 10.4082 11.9714
1 29.6746 0.680354 8.94668
1 11.6077 15.9098 6.05053
1 8.53444 22.3923 28.2733
1 2.08145 4.68384 26.3869
1 27.459 13.1978 17.504
1 17.2771 22.7528 29.6727
1 3.74895 14.0042 21.0515
1 12.3059 16.4718 11.4316
1 11.2366 2.39992 26.6895
1 29.4317 24.545 1.94037
1 24.0792 14.6847 15.0548
1 10.5165 25.4603 2.7894
1 5.68038 2.00165 7.61289
1 0.540668 0.762937 16.9682
1 12.6495 13.8561 11.895
1 18.0079 19.1956 5.49468
1 28.2198 22.3471 6.36448
1 0.441834 11.9242 6.38714
1 30.3965 28.3672 16.4022
1 8.74247 1.52555 14.0158
1 13.004 23.4868 23.6497
1 24.8806 9.86536 21.3731
1 10.2832 17.8554 15.5291
1 21.3044 19.0229 13.9735
1 16.1302 26.9454 26.8168
1 13.4684 18.4458 2.15166
1 20.2772 13.3394 15.8604
1 9.72286 13.4864 15.646
1 6.68511 29.6633 26.3867
1 11.1971 15.5826 11.1479
1 23.4052 5.82282 5.9438
1 9.15027 28.585 16.1987
1 9.19836 0.433219 28.923
1 10.4412 15.9472 17.1843
1 20.0581 6.40632 26.7273
1 14.3736 19.5563 20.4497
1 17.939 24.0193 24.1772
1 27.6327 12.3048 24.9814
1 24.4184 27.348 18.4579
1 7.24138 5.5684 17.9037
1 1.19833 2.01804 0.373756
1 28.2143 17.4475 3.77651
1 10.9806 5.84021 5.15756
1 7.9848 11.4276 15.8939
1 20.7745 5.05993 23.8168
1 0.745436 4.17067 19.6551
1 1.94515 20.9756 12.5219
1 17.9236 28.6999 9.28316
1 21.2624 28.2316 19.3561
1 1.99551 25.9049 27.6999
1 10.6061 23.1723 1.67804
1 24.3803 1.39755 23.1564
1 18.0988 11.8497 19.344
1 27.0864 3.31018 5.46453
1 1.47879 2.28998 27.0608
1 25.7491 8.09575 27.0646
1 25.5215 30.2554 19.2635
1 15.376 14.7251 28.0837
1 3.85995 7.03659 5.65065
1 0.73478 8.84572 21.5593
1 19.1571 18.2077 23.531
1 18.0186 4.01118 25.1733
1 7.70086 28.9904 22.1162
1 13.3026 22.4334 5.02027
1 16.9862 17.8681 11.191
1 10.8939 20.9264 21.3079
1 27.0323 12.1452 1.01983
1 15.1946 16.5079 8.41779
1 26.097 7.30793 1.43375
1 29.4076 25.8239 6.91763
1 17.4858 6.77578 5.8958
1 27.4645 3.54174 27.7984
1 22.3063 16.0067 0.647988
1 4.14899 23.65 23.89
1 11.0443 2.74657 3.11132
1 11.3034 18.8194 21.7987
1 27.6405 5.49532 29.322
1 2.1459 5.17934 10.9749
1 9.07019 26.5351 0.431094
1 5.76602 7.18101 2.4494
1 13.2497 10.6767 0.565917
1 4.21591 13.2621 30.0367
1 10.7351 21.1355 25.2222
1 2.25068 1.37108 23.9821
1 29.9277 29.926 18.9948
1 9.42141 4.23715 26.3859
1 4.04123 5.96322 6.55887
1 21.9372 13.2135 20.068
1 19.7025 26.2388 18.5001
1 19.2623 1.12164 18.6705
1 1.22189 20.3174 1.70628
1 27.2454 4.8422 17.8018
1 26.2169 28.4561 16.9223
1 16.7811 25.1366 12.8598
1 28.717 23.5346 5.90298
1 22.3982 29.3183 4.1534
1 6.43501 14.8489 7.98098
1 8.55675 0.173124 27.5782
1 5.35811 24.9893 12.3122
1 28.276 21.9497 12.995
1 9.19301 11.7478 5.41151
1 30.1964 2.87835 10.2632
1 6.52246 27.1359 29.6225
1 1.69516 15.1419 2.56457
1 18.8344 6.54243 5.4586
1 23.298 27.1252 20.5083
1 12.4755 6.20439 30.0917
1 4.95889 3.72499 26.6471
1 13.8982 25.8862 11.4282
1 10.72 26.9513 20.0258
1 4.22289 19.4257 20.9954
1 16.1792 21.7104 26.5322
1 11.0606 28.9118 6.62807
1 4.91393 20.5965 20.3106
1 18.3101 2.28178 5.5376
1 8.5528 3.13744 3.65312
1 13.8244 13.6278 6.99019
1 22.2111 27.0628 19.3423
1 26.8331 29.1744 3.95884
1 18.4019 18.6543 7.93848
1 19.3208 27.0779 11.0614
1 4.95175 21.6286 27.8731
1 1.99577 24.2925 28.2239
1 3.99998 27.8349 0.239398
1 29.0423 20.9654 23.1652
1 21.78 4.19019 12.6175
1 14.5756 8.22345 28.8004
1 6.8604 24.2918 29.0688
1 14.9482 19.0714 4.26668
1 14.168 14.0005 26.1663
1 1.18454 8.2108 23.8463
1 15.958 7.81751 15.2002
1 1.11017 23.4844 13.9319
1 14.3321 13.1438 21.2454
1 13.9418 22.5771 27.6868
1 5.7257 23.3653 26.9177
1 19.7171 21.9355 23.2385
1 25.1523 13.8905 2.28385
1 28.4815 4.61939 28.3827
1 21.7068 25.5652 29.5466
1 29.7479 14.7599 3.51957
1 18.2448 18.2463 20.9819
1 21.44 8.76013 15.7864
1 17.7105 27.2028 3.80764
1 2.19412 3.76328 24.9444
1 0.705432 9.58785 20.1981
1 29.1802 8.83476 29.3715
1 24.4962 6.67974 13.8075
1 24.0659 6.32709 11.6182
1 3.3304 27.8617 9.98438
1 16.2234 26.4333 12.7319
1 7.66144 13.2491 23.0702
1 16.2385 25.7386 22.4836
1 24.1396 9.47863 27.0438
1 7.26241 4.05596 28.4836
1 7.37468 23.5408 24.8238
1 14.0312 14.8664 6.19614
1 16.8299 26.9988 22.5081
1 8.0805 24.0224 5.74426
1 7.56269 16.3492 0.701898
1 25.6895 0.471735 12.7451
1 19.4579 2.50285 2.66701
1 29.6132 5.32901 14.9486
1 25.0852 27.9141 14.016
1 22.9416 30.3514 21.2569
1 10.5459 5.03776 25.843
1 20.8206 26.33 21.5036
1 3.03425 21.9588 1.94463
1 3.91386 4.97826 4.39906
1 11.5196 2.09613 10.6331
1 6.9755 16.3656 1.96019
1 5.53639 21.483 17.769
1 11.8425 12.9729 15.2877
1 18.6521 18.7946 9.44119
1 25.1728 12.0137 3.85227
1 2.35292 4.03165 10.1092
1 26.3222 6.88214 21.6442
1 4.78882 0.542959 15.9332
1 28.8198 13.3725 22.3895
1 4.96693 14.7587 24.6806
1 11.6731 10.3053 5.48215
1 5.12557 4.61136 12.6123
1 28.6247 4.75185 26.6872
1 3.49133 25.3699 3.97389
1 12.9069 23.4272 12.6882
1 28.7564 14.213 21.0873
1 21.1708 5.6899 22.6666
1 16.6192 27.6685 28.0738
1 0.25196 28.4076 3.65235
1 20.0748 22.2644 13.0438
1 8.5226 26.1572 2.93631
1 24.7172 17.5528 23.1957
1 23.0812 10.0066 14.6229
1 30.1502 4.8237 24.8276
1 20.2779 4.87793 16.0327
1 8.66317 0.784414 25.5033
1 7.10124 17.7542 11.0399
1 21.6917 21.1954 21.5979
1 28.0616 13.1407 20.5158
1 15.181 25.2431 1.42886
1 10.8797 0.639705 16.5621
1 14.0412 15.556 17.299
1 13.2655 4.4117 23.5357
1 4.04307 26.9834 9.1286
1 20.2555 20.8179 22.6136
1 13.8705 5.07222 17.5445
1 25.8638 29.7543 8.27219
1 29.6054 18.6231 6.23588
1 29.2639 1.65079 27.8325
1 27.2509 3.57609 17.4597
1 17.828 23.112 18.3037
1 11.8608 2.00608 17.8865
1 0.181664 14.2023 6.55596
1 18.8152 3.52601 17.5979
1 14.5644 17.919 26.5428
1 16.6103 19.8196 7.32146
1 10.9376 10.3341 24.2706
1 8.55518 25.6911 27.4487
1 8.39392 30.0773 30.1505