4096
Atoms. Timestep: 340
1 25.1579 23.3213 14.3393
1 28.8193 9.50065 10.7557
1 11.9944 6.6264 25.8355
1 14.6509 7.15741 10.2686
1 26.3585 17.5302 10.0498
1 8.17031 22.7779 27.5756
1 0.637808 22.5149 8.44029
1 12.464 21.3 28.5815
1 10.2442 17.2772 19.4154
1 15.8606 20.1048 1.71681
1 5.96238 23.1167 4.21104
1 22.8771 25.2232 9.85967
1 2.6094 13.8222 13.6672
1 29.1059 3.98143 6.17415
1 27.5724 15.4844 8.70338
1 22.8314 4.28172 9.68412
1 27.8171 4.08667 24.8961
1 7.90409 2.86642 22.7231
1 13.6453 4.44042 9.83599
1 16.9976 7.4117 16.8419
1 7.65284 10.8647 5.196
1 26.4618 14.8093 14.4225
1 5.2686 30.059 6.4817
1 28.8223 13.8942 22.4007
1 5.57182 14.6275 23.1181
1 15.2044 11.6431 2.12318
1 24.8687 30.0277 24.1714
1 26.7777 17.5387 5.66297
1 24.5293 9.16409 3.2779
1 14.3088 21.9168 27.1415
1 6.29666 12.3595 1.4663
1 16.9882 10.3511 6.68026
1 18.2153 3.72385 22.1784
1 12.5325 22.2856 1.82067
1 20.3912 0.374135 7.85058
1 12.4125 16.1726 6.0186
1 0.55662 26.1197 13.5987
1 20.999 1.15647 1.63268
1 26.4409 1.83456 13.0063
1 4.61246 4.90916 7.34486
1 16.8853 3.32312 22.4066
1 1.38452 2.89434 8.4864
1 11.4049 25.8203 15.7429
1 6.97345 2.56897 5.16421
1 19.1864 13.2568 5.28412
1 24.1023 27.1926 2.36483
1 17.9717 23.3042 18.3759
1 11.4448 7.61988 24.9994
1 26.344 18.4076 16.6517
1 24.7319 22.9381 13.0689
1 11.4539 8.61156 1.24358
1 23.5732 10.8254 9.10407
1 22.6347 27.9673 7.58687
1 11.412 1.05628 21.1608
1 18.3438 18.3881 12.715
1 27.603 11.705 28.5134
1 15.5502 10.241 24.5164
1 3.1278 9.01735 3.60965
1 13.5538 12.3929 16.6056
1 -0.163785 3.34624 16.818
1 13.4824 16.8148 0.580159
1 22.1095 4.35407 30.04
1 12.0868 3.41795 5.4734
1 7.88148 27.0023 8.62026
1 21.6466 11.7347 23.1249
1 9.99243 12.3648 22.7671
1 28.2878 20.2254 28.0593
1 13.9713 12.0768 24.5194
1 11.2325 5.03359 19.806
1 14.7493 28.6296 15.1832
1 28.2303 18.5925 9.25889
1 21.4507 19.5791 22.0243
1 14.5284 20.9609 6.28211
1 22.6561 14.6219 24.2872
1 24.0528 21.5438 15.0561
1 3.07109 2.72265 20.1311
1 20.2318 25.3227 10.4008
1 23.6616 18.2042 7.84184
1 2.00352 21.6722 24.2472
1 7.87389 22.624 9.61127
1 13.4199 0.660573 19.5258
1 11.3556 20.2693 6.46642
1 21.1299 20.6849 2.14736
1 12.3349 11.6699 16.3282
1 25.7692 1.96817 14.2444
1 22.7071 29.6779 17.0498
1 16.064 19.4531 8.10695
1 17.8813 27.5546 24.177
1 26.8156 21.3523 14.6572
1 2.34319 28.1371 3.66413
1 6.84472 2.31993 12.2265
1 10.2154 7.13579 7.57208
1 29.8227 25.7066 4.60789
1 20.2706 14.4543 24.8327
1 5.97866 24.6679 23.4868
1 14.822 26.2363 10.9772
1 14.2178 4.40729 3.44914
1 17.8374 17.8654 21.9682
1 30.2037 24.1166 4.60454
1 11.7422 26.0134 29.2253
1 9.98836 29.2733 8.73509
1 13.6692 4.11351 14.1466
1 7.66763 11.9726 21.3587
1 8.74807 29.0514 25.6959
1 21.1692 8.06121 27.0918
1 16.0341 28.1255 15.8707
1 10.4095 27.8293 8.72472
1 0.986945 14.405 23.0198
1 20.6083 29.3461 25.7577
1 6.27415 25.313 10.1549
1 15.9332 10.2341 8.86306
1 3.2144 19.9544 4.26476
1 3.34469 5.51538 11.5364
1 26.6561 23.0743 19.2587
1 29.531 24.136 14.799
1 27.1414 14.5585 5.45673
1 3.92618 26.5671 7.84009
1 16.302 20.5644 21.571
1 7.82683 19.8301 21.2688
1 0.945115 18.6311 8.6117
1 22.7163 24.9057 17.9092
1 8.36448 18.2115 12.3942
1 7.52541 27.7607 12.7728
1 26.8364 19.022 21.2609
1 15.8225 28.9614 0.146998
1 24.4797 16.2573 13.6428
1 8.52762 13.2591 19.6556
1 14.4748 17.0347 1.61472
1 27.776 15.5229 13.9088
1 10.6536 23.461 18.6245
1 2.49641 27.6463 22.9023
1 20.5061 18.2114 8.028
1 11.1132 11.49 3.13926
1 1.14738 3.62928 4.86423
1 7.27877 21.4283 16.1625
1 8.63693 12.4217 22.4637
1 5.02491 4.75656 25.7298
1 11.7143 9.54247 21.1567
1 14.9236 13.9663 7.03921
1 13.2791 0.284764 8.97057
1 1.96164 24.2975 8.97833
1 25.607 17.87 4.51754
1 22.8421 21.9638 14.8114
1 25.6063 12.6633 0.221984
1 2.76169 15.162 25.2718
1 18.8314 24.7449 24.7788
1 29.1139 21.5778 5.73214
1 4.42357 27.0158 16.3045
1 9.607 21.4917 20.8167
1 5.42375 13.0033 16.3882
1 6.12964 3.0048 19.7198
1 20.8887 22.0567 29.5504
1 22.2273 6.70553 2.41996
1 14.4674 1.81262 4.68154
1 7.94406 17.8619 19.7739
1 24.47 6.18925 16.8672
1 2.93185 26.9751 13.4633
1 3.97677 28.4317 22.5302
1 1.61609 10.6922 30.1398
1 18.4223 19.0816 7.1758
1 9.73817 10.9327 6.26131
1 27.8299 12.3945 9.65013
1 11.86 8.67246 22.2865
1 28.6173 18.8551 24.0596
1 22.8089 20.5965 20.2766
1 21.204 22.7801 0.566414
1 24.088 21.5158 18.6147
1 23.6838 6.96057 0.427815
1 27.4355 22.8228 3.30442
1 16.2372 7.77477 23.9684
1 10.5806 8.73682 17.2684
1 11.998 15.1257 2.91405
1 20.7089 8.46576 9.72838
1 5.80088 14.7638 29.2011
1 22.097 1.26259 26.7136
1 6.52139 9.93367 5.12815
1 4.69565 26.7362 11.1658
1 4.72562 7.43734 6.99384
1 29.1068 22.6416 16.7765
1 12.0105 20.5947 11.3311
1 6.20979 18.8177 23.2817
1 9.55989 17.9518 4.0556
1 10.4112 10.089 13.1894
1 14.9176 0.640424 7.02012
1 1.77772 13.1819 23.3148
1 17.2121 21.148 29.885
1 24.7426 2.77937 25.7253
1 6.34722 8.28145 20.058
1 26.235 21.829 28.4639
1 24.4751 27.4258 19.3322
1 24.4777 2.04276 10.4959
1 28.5432 20.8771 26.8813
1 5.79288 16.3402 17.7321
1 13.8326 7.82762 13.6447
1 19.8045 18.0423 19.1303
1 13.9803 15.7233 25.2006
1 26.4248 1.486 18.014
1 26.3879 21.0936 7.30522
1 26.3731 28.8219 28.431
1 22.8158 29.8116 6.27464
1 2.25588 6.50108 27.7192
1 7.97676 17.4455 7.38236
1 28.9022 28.3476 11.481
1 19.5941 1.7173 15.4276
1 17.2434 30.2514 19.5551
1 17.1733 25.5112 2.72642
1 2.1794 16.7336 16.8653
1 20.4627 28.4653 29.5051
1 2.64052 20.1495 0.635384
1 21.252 18.998 20.7359
1 3.87818 0.969714 18.6472
1 13.5951 11.707 20.5065
1 14.0522 1.48557 21.6996
1 4.7135 30.6723 26.0222
1 2.36921 10.4897 10.7796
1 21.9568 8.13264 9.66059
1 4.1617 14.6479 29.5281
1 11.3745 13.9484 8.23653
1 13.5875 18.0656 11.3431
1 24.0065 20.6491 7.93344
1 19.9449 16.9843 24.4608
1 21.2793 24.5052 4.95028
1 8.49974 24.5932 21.2293
1 16.7067 8.77966 26.5689
1 1.0052 28.2824 27.1322
1 13.2975 10.6378 29.698
1 20.6144 12.7925 2.99416
1 4.03613 21.1831 7.59056
1 27.2102 24.9875 1.84089
1 14.953 5.07155 14.2794
1 12.9496 14.9539 17.3069
1 27.9729 26.632 19.4105
1 26.2404 24.2756 14.2574
1 1.57686 8.94804 19.6065
1 18.6061 8.45915 12.3393
1 27.622 23.6231 5.64399
1 25.2243 25.3831 7.91625
1 2.80546 17.6578 4.70638
1 9.73944 12.2962 6.12853
1 24.7991 1.09247 16.301
1 11.9463 6.48494 29.9078
1 7.67631 4.59712 15.7917
1 11.7881 4.41345 21.9593
1 29.7171 4.37277 30.0728
1 17.8258 23.2087 8.55774
1 22.7644 17.9665 23.9557
1 3.11693 4.23561 12.134
1 10.3143 4.4051 15.2266
1 5.22997 26.6299 19.1143
1 25.6779 28.5226 12.8077
1 7.50568 10.3571 24.2777
1 23.1102 24.4147 22.1965
1 23.4153 18.0386 26.6519
1 10.4321 9.54583 14.5462
1 5.48466 27.3257 5.29989
1 13.018 10.7346 8.9796
1 19.6275 8.53297 10.3997
1 22.926 27.6188 27.7006
1 22.728 9.5864 20.2617
1 14.5459 16.1665 21.3297
1 19.3411 27.1382 26.2843
1 2.53878 3.54547 8.84951
1 23.9553 1.0671 7.64498
1 21.0871 0.882896 0.165098
1 11.5579 21.0333 3.74883
1 10.3597 21.4232 17.1082
1 11.0469 15.765 25.387
1 13.3885 8.93525 3.98987
1 24.0491 16.3394 25.3816
1 15.215 13.6486 4.1021
1 26.2536 8.86675 17.4569
1 0.495826 10.5818 8.2231
1 7.0605 11.6843 2.51193
1 0.444645 30.5931 10.8294
1 6.23288 7.63223 17.9573
1 26.7085 18.907 9.87114
1 28.5921 1.90554 28.8871
1 22.209 2.569 11.7017
1 12.798 28.4864 24.4665
1 15.5491 26.758 29.9762
1 12.8523 27.612 1.91385
1 9.35937 1.51959 10.0154
1 4.8847 10.1779 1.93871
1 6.90029 10.8644 7.32083
1 17.2699 27.4801 5.25333
1 4.37327 15.4219 15.9086
1 16.1469 22.2866 29.6412
1 4.21441 6.63035 0.13663
1 27.0401 2.50918 6.64872
1 5.07046 2.75845 12.7835
1 5.7743 26.5793 1.72418
1 28.9881 11.194 17.608
1 18.66 10.5073 20.8387
1 27.5744 3.9957 29.3722
1 25.4641 16.8688 12.5416
1 5.24564 21.1473 6.96845
1 13.0245 16.7918 9.11023
1 21.9785 5.77416 27.8417
1 29.1245 14.8908 21.1379
1 8.79229 22.0618 2.59269
1 6.73656 17.1098 5.48781
1 9.15777 13.7175 0.47242
1 22.8423 6.72578 29.651
1 16.1613 4.44382 15.0088
1 29.0201 1.595 14.9666
1 11.5108 13.4505 9.38696
1 12.8007 9.24594 20.5355
1 17.6294 19.0763 10.4682
1 28.9238 30.5236 20.6218
1 10.5275 8.94445 27.3902
1 24.9783 9.86563 12.4772
1 26.7555 1.90441 25.7988
1 13.4908 11.4979 27.1894
1 18.0639 20.0132 25.2807
1 15.0574 15.7483 9.87516
1 1.31225 25.0706 19.2317
1 0.585768 26.048 8.09892
1 4.57172 26.6332 26.1456
1 18.8368 0.590514 5.18518
1 10.7724 1.60869 13.7784
1 8.82568 25.5095 19.1398
1 1.44089 25.1419 23.5431
1 20.6161 18.6178 18.2481
1 4.1356 15.5212 24.7641
1 18.9093 13.9087 22.3932
1 26.7666 25.2513 27.1234
1 16.8842 9.98557 8.01379
1 10.8935 0.865523 29.3065
1 6.69028 27.6202 4.69088
1 23.6601 20.2619 23.7227
1 14.5741 7.34721 9.05839
1 29.1052 11.0473 26.2887
1 8.95469 2.77798 29.0933
1 10.9209 26.1345 25.569
1 8.04274 4.53723 1.24711
1 0.601731 11.3497 3.63344
1 19.36 2.66563 30.2187
1 3.58144 16.1128 23.6095
1 9.33084 5.85128 16.7238
1 4.3799 4.21228 23.3938
1 26.8892 12.696 12.3047
1 4.63143 12.3192 29.0488
1 27.7395 17.7156 12.4832
1 20.7493 8.41053 29.6496
1 20.1375 19.7822 17.0674
1 8.37761 10.1518 25.4387
1 13.9886 4.21477 22.9623
1 9.68296 27.5313 30.0981
1 9.73836 15.5092 25.3506
1 16.4433 16.5032 24.5741
1 16.9364 22.2343 18.2098
1 21.0025 11.0672 29.0843
1 2.18534 18.9877 4.82296
1 4.58305 1.5467 14.7356
1 2.68599 5.13001 9.45868
1 6.80016 9.19422 6.36091
1 16.9356 2.65347 9.20664
1 13.1753 26.8431 26.7814
1 3.23825 26.9171 6.30441
1 6.4274 5.96204 9.24408
1 23.488 15.4963 20.0057
1 19.2098 25.3899 27.406
1 7.43919 28.4378 22.3019
1 25.7393 3.18088 1.0845
1 4.01769 -0.064671 15.3277
1 13.7274 25.5364 18.12
1 3.92298 12.9078 25.766
1 18.0459 17.716 2.51897
1 19.3188 1.30627 27.542
1 3.14778 19.9266 29.5347
1 9.77602 30.0244 9.87293
1 3.9484 22.5217 2.47702
1 14.0031 7.26273 17.4239
1 4.55216 2.06005 24.3511
1 20.6865 7.08559 23.4268
1 9.23929 6.54583 24.242
1 14.9259 3.31254 12.0973
1 14.8177 12.5698 18.6351
1 14.6805 18.9571 0.152912
1 23.5036 11.6863 30.3573
1 24.0886 5.17216 22.5666
1 1.28914 16.8532 15.8658
1 19.8156 4.6532 13.6153
1 21.7187 16.2553 2.85927
1 25.0873 17.0399 11.2737
1 19.9874 20.8564 12.2791
1 9.29629 12.6843 10.3296
1 4.12716 0.623553 3.92439
1 23.8867 10.6211 10.5486
1 25.4138 27.8791 7.8695
1 22.2818 16.5806 23.0734
1 13.0687 28.1836 19.3724
1 17.776 26.5799 15.3497
1 28.6271 27.1704 6.31157
1 29.2215 17.9364 26.4479
1 16.1726 21.6639 4.05665
1 7.75615 19.0976 23.7452
1 5.71953 26.951 15.5044
1 2.36117 27.708 24.3473
1 25.6002 22.5882 25.0419
1 21.1736 17.699 16.2293
1 23.4956 7.31226 16.5898
1 24.0749 5.75945 10.5702
1 26.8742 0.713411 24.7292
1 1.50843 17.5509 2.55553
1 9.19357 27.3681 27.1583
1 29.2779 8.37872 18.8436
1 23.6778 11.0533 21.8689
1 28.2202 16.5917 24.7275
1 15.4737 29.3541 18.181
1 11.1212 23.6501 4.07846
1 8.64374 25.8361 15.2422
1 12.1573 24.6687 13.718
1 18.4232 4.00411 5.13551
1 25.1202 7.3948 15.0906
1 8.67524 9.10173 12.1111
1 25.0573 28.7418 27.7508
1 6.19481 23.5306 17.9338
1 19.4623 6.1469 6.36943
1 8.96221 26.2963 22.9971
1 29.7251 16.5992 12.4341
1 7.36794 13.9974 27.1341
1 4.74713 28.7518 6.36393
1 1.13671 7.91317 7.54795
1 27.2231 0.503524 12.4599
1 3.84278 24.9604 18.4161
1 20.0448 12.5135 0.527522
1 3.53828 17.5913 14.6739
1 22.4849 1.86208 22.7741
1 8.68423 12.5243 3.38018
1 14.5054 10.9441 7.18367
1 27.3179 9.56209 11.4468
1 14.0057 26.9537 13.2343
1 15.0539 28.611 1.31968
1 21.569 10.7018 10.8792
1 9.6126 25.8763 27.9213
1 9.00992 11.6895 8.26673
1 12.1984 24.6161 16.2394
1 5.16989 11.6958 4.50499
1 13.0777 2.43033 21.1794
1 4.65914 1.4657 13.3628
1 19.1867 16.7205 19.3554
1 27.6093 30.0194 9.87165
1 6.50034 28.635 18.4398
1 9.74996 12.9509 4.80718
1 29.4483 5.15259 14.2918
1 29.7752 28.4245 27.1964
1 5.89403 22.2224 24.7638
1 1.16495 6.80814 2.68756
1 13.6558 29.1996 26.7059
1 29.2493 10.5119 12.7584
1 4.32086 23.1958 20.2948
1 15.5388 29.287 11.419
1 8.81039 9.70481 22.4612
1 15.9626 8.5114 0.597271
1 4.8468 18.8031 27.7649
1 18.8151 12.758 19.1453
1 0.721522 13.9317 11.5774
1 20.8397 10.7197 18.7958
1 27.9668 3.46059 16.5422
1 4.92192 22.9118 17.5961
1 21.8298 19.4948 25.365
1 28.1528 1.83051 18.3747
1 27.5484 8.65981 25.9702
1 14.1803 2.70943 22.7613
1 7.74654 22.4662 22.6174
1 19.1644 10.4455 0.0923479
1 1.79867 3.14692 24.758
1 28.0226 24.8555 26.764
1 21.0584 24.3759 13.0871
1 12.3314 17.0033 18.306
1 25.2493 19.1207 1.15436
1 26.6496 7.84468 10.1833
1 24.9544 1.33953 23.6219
1 24.8946 26.7794 29.3726
1 9.9329 11.9878 3.58858
1 29.3228 19.2412 29.1548
1 12.6395 26.6464 3.93968
1 27.5464 9.16452 20.5691
1 17.4965 14.623 2.45942
1 30.3457 3.64532 18.268
1 25.6908 1.70057 19.2904
1 3.52339 2.5887 9.55882
1 19.3826 21.6406 5.95599
1 18.8476 16.563 27.2314
1 3.30795 22.316 20.9403
1 22.7842 10.9757 20.7563
1 4.11041 16.7227 15.6762
1 4.93692 2.23074 7.39341
1 21.625 30.0919 5.59488
1 2.54739 18.8314 9.07011
1 17.8283 21.5105 13.2005
1 10.1719 14.8983 7.9577
1 26.0492 7.56194 12.6424
1 1.72532 9.07361 21.943
1 29.4466 13.6726 11.9027
1 5.93381 10.2602 10.5472
1 28.969 29.588 21.8954
1 22.6807 26.0134 8.28908
1 14.0371 5.92856 17.2101
1 11.4018 21.3543 2.20353
1 8.45482 23.0833 1.59187
1 14.9026 1.53696 1.14528
1 13.1922 2.17704 15.6175
1 6.75043 8.16056 10.4422
1 13.7765 16.527 13.7167
1 29.1511 1.98167 24.1956
1 11.4435 27.8967 21.2871
1 28.8363 10.114 29.6112
1 22.7136 29.1988 8.6125
1 16.3854 13.3811 4.89702
1 1.575 7.1671 6.36599
1 11.1386 3.8184 3.11974
1 6.09621 0.71746 0.125502
1 9.11391 22.1344 29.5664
1 2.57421 14.4465 17.433
1 4.29504 21.9701 30.059
1 0.956888 7.07189 25.225
1 21.9466 5.71668 29.4636
1 25.1541 11.1756 17.0804
1 29.4485 25.0914 23.0344
1 2.47336 13.8888 27.8818
1 23.9068 5.14315 14.4285
1 26.6345 29.5764 3.10012
1 25.7486 19.8569 10.235
1 13.294 27.9628 15.2928
1 16.3933 13.1229 8.48576
1 14.7946 6.27597 23.7
1 0.266243 6.4723 20.4812
1 11.7465 1.58534 1.07483
1 13.7769 4.46501 7.60597
1 25.3811 24.8333 20.8419
1 10.2292 18.977 3.53974
1 27.6118 10.6572 17.2642
1 28.6506 5.93304 28.4063
1 2.81167 17.5904 13.3665
1 4.63121 29.0417 19.5278
1 11.5049 0.418679 13.3696
1 9.12424 26.1537 4.60092
1 17.2652 6.71317 6.39375
1 17.3312 18.1801 15.234
1 12.6609 15.563 12.3382
1 16.3697 22.6346 11.7646
1 21.838 5.88607 17.6251
1 9.73819 2.55141 25.6411
1 28.2471 16.3936 12.5034
1 21.0951 3.29092 10.9791
1 5.27052 10.7996 5.63037
1 28.2875 21.023 29.486
1 6.59775 15.3754 6.69529
1 8.08052 9.14846 2.92858
1 28.2887 12.971 12.7364
1 16.7506 9.93412 22.5213
1 10.3741 21.2932 22.2098
1 16.7158 12.2586 21.7039
1 28.5584 25.5898 16.5586
1 6.09338 2.41905 25.5846
1 3.53712 4.00729 1.99894
1 18.7075 0.589023 21.5818
1 5.90634 4.29537 19.2403
1 23.6105 22.1155 30.4288
1 2.4574 25.1024 17.8058
1 13.4363 13.2463 11.4124
1 7.21129 7.14984 9.36966
1 13.2013 1.01672 4.14176
1 8.06691 11.1014 11.9631
1 5.486 9.17996 27.9891
1 13.8751 1.94184 19.0463
1 27.1663 20.8498 26.0322
1 7.37244 26.4857 2.99913
1 -0.0504934 3.81516 27.039
1 6.55898 26.0176 19.2946
1 2.93974 22.8086 18.1376
1 2.50243 4.33973 26.8438
1 22.486 0.424672 30.037
1 24.5654 19.8314 10.8594
1 13.5939 11.676 6.37983
1 14.416 20.2033 1.25512
1 15.7308 11.4899 5.12401
1 27.2831 23.9024 23.4904
1 28.2879 30.0861 23.9999
1 9.51691 11.201 12.6131
1 14.3971 27.2996 22.6105
1 26.16 21.5048 26.9591
1 24.6514 9.79593 27.8163
1 0.547252 21.6586 27.3725
1 15.4201 26.8689 17.6567
1 15.4589 8.42369 5.24368
1 3.20453 3.72262 5.98338
1 29.9236 8.56714 4.18063
1 24.3197 5.28183 1.91664
1 1.80016 25.7698 8.50164
1 5.97328 4.84711 12.0398
1 1.0731 15.9256 14.7312
1 16.8608 12.5164 11.1299
1 4.56013 18.8976 1.22956
1 6.55685 5.56558 19.7265
1 19.7002 24.4158 12.7632
1 25.2602 27.4108 0.358931
1 11.9391 28.8032 10.2002
1 23.0518 29.8888 26.993
1 9.59746 11.9136 27.943
1 21.6186 8.82075 24.7027
1 16.1556 16.2142 13.1949
1 26.901 22.6467 11.9676
1 22.4 3.92645 7.91227
1 4.85175 5.8292 2.67917
1 25.2779 11.3961 21.9752
1 4.88786 21.5414 17.9899
1 4.96393 29.4653 28.0911
1 28.8291 5.00399 24.3113
1 29.4216 28.3579 9.88131
1 9.47107 28.9918 13.268
1 24.7632 24.3164 19.3847
1 8.02629 16.1925 10.7439
1 17.2675 28.0364 25.2791
1 12.8553 12.7718 13.6412
1 20.7944 26.7789 18.4193
1 9.93907 15.2716 5.43568
1 16.9135 5.24065 12.6729
1 2.34367 18.3138 10.523
1 2.76015 25.7845 21.1963
1 26.2601 21.581 11.5407
1 3.16053 10.6271 29.7055
1 1.6438 5.61628 17.4535
1 16.4476 9.29244 14.5697
1 11.9233 23.7375 24.3921
1 29.3945 12.1263 16.4821
1 30.0597 27.6401 3.06867
1 3.26395 21.1286 18.2718
1 26.4391 21.1492 5.74574
1 11.2209 22.8398 30.1835
1 25.5151 24.7966 11.8576
1 19.4682 15.1297 28.3602
1 6.46232 9.55167 26.6787
1 18.906 24.1796 28.8624
1 26.4662 26.4723 16.0301
1 1.01733 27.2626 7.52393
1 10.595 24.6108 6.4898
1 18.3187 13.9226 26.6795
1 8.37259 3.81351 12.8149
1 12.9756 1.9557 17.0799
1 0.640362 17.5503 19.061
1 15.2051 18.6445 15.5926
1 6.37404 20.6202 27.8046
1 24.109 25.964 8.71901
1 3.06416 4.7838 6.75644
1 9.99384 15.2131 22.2092
1 23.8958 5.01211 9.41323
1 1.57391 1.64546 26.7527
1 15.9921 18.3219 20.212
1 29.9834 29.9961 13.3362
1 25.0688 30.2273 30.1455
1 1.28338 10.7423 15.4939
1 5.08362 18.4013 17.0535
1 22.7732 0.159841 7.83495
1 19.6759 29.0602 1.92158
1 8.12596 3.12919 6.08544
1 25.9932 25.1283 13.1785
1 25.165 2.74665 2.69522
1 7.52431 5.41987 25.0012
1 11.166 4.29365 13.8045
1 10.581 3.7092 18.8999
1 14.5278 24.3126 24.8204
1 0.143126 16.4251 20.024
1 11.959 26.8434 27.6325
1 7.17447 27.2364 16.5326
1 14.7586 12.822 11.6387
1 25.8832 24.4283 9.56245
1 3.36744 4.21508 22.4184
1 26.4681 14.2783 16.8219
1 22.1197 22.5807 21.0746
1 3.19314 24.2869 27.6124
1 13.5787 19.8681 9.33689
1 6.93976 25.9762 29.5292
1 0.624087 24.0045 12.7725
1 25.353 8.83061 21.8029
1 25.8756 19.5374 17.703
1 12.7207 18.014 4.84105
1 24.2046 2.40175 22.5662
1 25.143 12.0931 5.82965
1 0.159381 26.2545 3.37136
1 26.2518 21.1901 10.0292
1 15.2906 2.29864 27.5073
1 7.9507 26.9201 10.0441
1 4.03175 20.6677 20.9542
1 28.2559 25.6771 4.40796
1 17.716 16.9805 19.267
1 7.71898 6.02099 18.8192
1 15.933 3.46889 10.0023
1 25.8888 22.8611 26.4304
1 21.7237 13.369 13.2647
1 25.5861 5.27175 28.6591
1 10.4604 19.3894 13.0397
1 28.1811 23.5469 17.4817
1 27.6254 24.2687 0.624287
1 28.4414 14.2173 5.5815
1 19.7368 4.65634 12.0896
1 19.3433 20.6145 14.6018
1 16.8065 13.4723 6.16189
1 1.58183 26.6231 1.3263
1 7.19226 16.324 28.3907
1 5.61959 5.1423 22.7501
1 7.03953 28.4263 8.34999
1 27.0368 9.51831 14.1843
1 19.6269 29.2302 18.836
1 9.62447 10.211 16.7721
1 7.36573 19.4583 11.9732
1 10.656 13.0496 10.7162
1 10.6511 28.3349 4.23053
1 7.17821 25.6143 8.1394
1 18.7486 5.66864 22.7049
1 15.363 1.30872 21.3277
1 20.5537 14.6882 0.032838
1 29.737 28.7584 22.8466
1 21.9776 15.528 5.20144
1 7.33719 7.61773 14.9431
1 16.1094 18.791 12.5147
1 18.3082 26.4449 18.3077
1 5.20176 10.7487 23.6814
1 10.6243 29.6371 3.73736
1 11.9916 19.416 1.40972
1 17.1758 24.8043 13.6453
1 13.1383 0.321635 17.2781
1 29.6353 10.7448 3.95846
1 21.7413 26.6911 7.68205
1 28.7978 14.3973 29.751
1 19.0671 12.1054 18.1245
1 6.67509 14.585 25.0271
1 18.1304 14.6418 14.7752
1 14.4492 15.9004 14.8239
1 8.70396 19.5228 22.4341
1 16.6807 14.2377 16.2685
1 22.5588 26.9855 22.6406
1 7.26875 10.4473 0.455888
1 7.69734 5.42291 30.1362
1 4.94356 20.7428 28.1462
1 26.0333 11.4815 8.45599
1 16.1297 15.814 29.6549
1 29.0798 0.698707 6.65736
1 18.0784 29.2803 30.2723
1 5.82165 16.4415 22.5525
1 4.96749 11.3378 20.0809
1 7.8068 21.2668 19.3239
1 6.16906 12.8128 4.67444
1 29.9911 18.7104 11.6089
1 4.22865 7.11907 27.9167
1 7.39903 20.3563 13.2222
1 17.8688 1.43715 27.5628
1 6.76812 25.8236 6.62723
1 4.15802 1.47804 26.6773
1 8.75793 16.289 24.5929
1 12.9232 24.0832 9.11924
1 19.6772 27.0981 24.8729
1 25.8926 8.30238 6.87889
1 20.42 23.4601 15.072
1 17.1871 14.6067 18.9353
1 14.7899 24.5102 2.51769
1 22.321 28.4625 22.5787
1 15.6359 11.5741 15.6591
1 29.8121 15.0758 24.1023
1 1.73005 15.0215 19.007
1 15.4823 6.50277 12.2399
1 22.8112 27.726 25.8362
1 13.4206 14.1858 19.7463
1 23.0679 6.31011 14.0454
1 3.39257 25.8279 13.1067
1 22.2169 24.3273 19.3777
1 12.3026 9.37456 23.4992
1 23.8353 23.3948 5.35801
1 19.0185 15.2691 9.42751
1 22.4179 15.398 3.94961
1 13.7448 27.3141 3.19893
1 6.91975 4.76657 9.26305
1 17.5907 30.0269 14.7875
1 9.30016 5.49269 23.3008
1 9.72819 22.471 5.85147
1 27.7264 10.773 29.8687
1 26.0896 3.37256 4.37769
1 28.0927 25.219 19.221
1 3.17866 7.80419 17.8237
1 6.22525 27.9542 23.1577
1 15.7529 11.1617 6.49819
1 16.3825 24.8753 21.5257
1 28.7962 3.08647 3.88332
1 10.8982 3.15683 22.0836
1 18.9072 28.4046 4.46519
1 9.44995 7.36138 5.07479
1 1.2596 18.0754 13.402
1 2.01212 11.7448 5.84214
1 12.7117 9.99785 13.2981
1 28.5189 22.539 27.5205
1 12.0831 26.4178 21.5676
1 1.98647 3.0816 20.9327
1 17.386 7.79687 28.5684
1 30.2193 19.7368 8.84169
1 10.3876 13.0996 24.0105
1 6.31296 22.7514 11.3151
1 12.9954 28.0925 11.0802
1 2.91142 3.55398 25.4067
1 29.8658 29.0431 20.053
1 18.5098 20.1439 22.4088
1 12.6027 21.5686 29.9074
1 2.06763 8.01485 27.3611
1 28.3534 3.08476 7.09666
1 10.9571 25.5263 2.31807
1 2.46466 4.92688 8.02694
1 14.7377 11.2552 23.5747
1 0.282821 18.0642 15.713
1 4.79175 6.259 22.2761
1 25.6096 2.2625 26.6504
1 18.7122 3.11508 9.31636
1 10.6778 18.8124 2.37533
1 16.9515 12.1272 25.4908
1 9.35816 10.0526 21.136
1 29.7664 1.30834 28.2097
1 11.0288 5.37246 4.68075
1 14.537 23.0924 3.0064
1 16.1539 8.56718 17.4213
1 27.7164 11.7874 14.5536
1 16.5792 18.0003 21.4186
1 18.2549 9.0848 24.8328
1 8.3157 14.0308 2.84063
1 27.889 1.61461 3.76944
1 20.5691 20.6705 22.8109
1 8.97813 5.82415 19.2592
1 10.9042 11.2319 22.369
1 20.4778 3.68439 23.7958
1 7.94208 20.2333 10.4485
1 11.5124 27.1345 16.3658
1 9.13961 12.2271 18.0092
1 17.2392 19.5937 18.5692
1 20.9838 28.8573 9.81385
1 23.1439 9.90267 12.7359
1 27.2236 3.56347 9.07513
1 23.3601 12.6591 29.1589
1 2.16169 11.6908 26.8189
1 2.15112 14.9395 10.1405
1 22.5431 20.1954 12.2934
1 29.831 27.1714 11.8149
1 7.7889 21.6391 29.7325
1 9.63299 7.70632 23.3002
1 15.3598 26.542 23.0498
1 9.0354 27.6875 12.4648
1 18.0473 27.9986 28.2202
1 10.7172 23.1927 27.9982
1 4.28163 29.5014 23.4757
1 9.70978 9.64918 25.0575
1 9.54547 25.7779 2.48261
1 18.6332 0.847186 9.7046
1 18.6567 12.7841 7.874
1 1.20898 16.7154 29.9148
1 10.9084 16.5971 18.4952
1 13.6596 6.81982 6.1825
1 25.5789 23.7929 18.4482
1 25.9496 2.68655 7.57507
1 24.2403 11.5898 16.0992
1 23.7852 5.44179 21.1564
1 17.6434 16.2759 22.2532
1 5.28428 16.7207 13.0835
1 1.44166 9.48432 5.10595
1 10.9592 7.55621 16.4267
1 26.2482 4.79033 20.7152
1 18.8445 21.3521 30.1017
1 11.6231 3.56486 26.6854
1 28.6085 25.8403 29.6005
1 1.79087 15.0311 13.5725
1 0.715617 26.5848 21.9614
1 14.161 3.02808 13.2089
1 2.75049 1.36367 27.6364
1 22.4365 18.9225 14.7087
1 5.10048 0.361995 11.0755
1 7.53625 10.0934 2.01859
1 25.1406 22.414 3.64385
1 19.4424 10.5152 27.4025
1 18.9402 17.6534 15.7268
1 22.5274 8.55089 8.46483
1 20.9793 24.2442 0.511593
1 18.0299 11.8697 22.5933
1 16.9145 16.0086 19.8044
1 26.7265 12.4328 1.00724
1 3.88692 15.7893 4.34891
1 7.82031 17.7813 2.15649
1 19.744 16.4601 17.9576
1 9.87746 1.99237 2.54222
1 19.2025 26.3368 19.3858
1 7.80338 18.1798 25.2365
1 3.3619 13.4472 7.78921
1 16.4278 6.32855 22.0095
1 4.92349 10.4697 11.551
1 19.7667 5.43329 0.889311
1 9.88573 4.07541 0.925088
1 9.85554 23.4597 12.884
1 8.57168 20.1436 9.05819
1 28.4498 26.9757 20.8711
1 13.0361 17.956 22.4621
1 11.091 16.1781 2.84634
1 21.8628 16.5381 12.2779
1 25.0812 1.3717 2.41419
1 15.1286 2.50359 14.2301
1 8.89921 14.4686 1.69629
1 24.878 18.7535 18.5766
1 1.47674 19.1356 6.05662
1 29.4051 6.64423 5.9659
1 23.5543 4.22044 17.927
1 30.7389 12.017 15.3863
1 17.8466 12.2074 10.0775
1 13.7987 26.9035 6.40308
1 17.6776 27.976 17.853
1 16.5154 12.7113 13.5334
1 24.062 3.2547 18.8214
1 0.708135 24.87 11.3967
1 18.4576 8.9587 9.67023
1 16.9179 17.7091 26.4443
1 5.98474 30.1991 18.1177
1 24.9334 7.49911 0.0231654
1 4.97496 5.83022 16.8973
1 21.8425 15.9479 28.7083
1 8.92229 5.3736 12.6371
1 5.47166 11.415 9.53133
1 10.2586 10.7913 15.4316
1 8.11864 0.901991 15.7623
1 28.201 17.2745 15.2832
1 0.0667196 6.99065 12.9916
1 9.05236 30.2413 21.1298
1 18.6388 13.4501 4.10061
1 2.19371 16.64 5.4433
1 11.6008 4.38583 8.45908
1 12.1094 4.22728 19.12
1 11.2676 23.588 15.6979
1 2.00174 1.62709 15.9002
1 16.8207 10.7999 24.9925
1 19.4385 22.0857 10.1487
1 26.7351 5.51065 29.5431
1 6.27297 10.6995 24.6529
1 2.1006 19.3026 23.1696
1 28.4608 0.615922 22.697
1 0.718185 0.513459 1.17853
1 27.7279 28.7955 25.9301
1 13.6752 21.6399 0.821838
1 20.9595 29.769 15.7137
1 8.68874 14.3087 7.69771
1 20.755 22.4455 17.9367
1 19.1846 23.1783 26.6251
1 21.6335 13.5729 11.977
1 27.2524 9.4409 16.6609
1 26.2795 0.437142 9.64308
1 29.7068 23.5541 25.503
1 4.70883 17.273 22.8707
1 13.3541 19.6991 25.8737
1 5.61514 6.9651 24.4381
1 2.18788 18.0549 1.33927
1 28.0864 11.2917 2.09731
1 28.3364 21.2061 18.8181
1 22.6021 13.5403 0.931607
1 25.0124 28.403 9.28955
1 20.815 5.1333 21.5466
1 21.4246 0.502152 12.6297
1 19.3665 8.08866 25.6386
1 12.9015 13.3802 9.99111
1 18.2196 12.3909 26.2793
1 5.21328 18.5238 30.1284
1 17.8124 14.2175 25.3425
1 5.54182 10.5963 15.4599
1 9.63885 15.7499 13.6433
1 21.7238 3.50893 24.6697
1 16.8795 6.92712 7.86165
1 3.37447 13.4331 -0.0201658
1 15.3921 23.486 25.4424
1 29.0238 6.90804 7.4792
1 4.86874 24.6185 15.2412
1 12.0282 24.2812 20.2148
1 20.4572 10.555 26.3279
1 16.812 6.97831 19.2753
1 21.5574 6.14873 14.2272
1 8.13532 21.5415 7.01479
1 23.3703 17.1222 10.1037
1 13.0733 9.53839 25.8648
1 24.6314 26.1674 25.6954
1 10.216 0.355407 24.6032
1 20.0565 11.5102 9.14418
1 14.977 3.92538 16.255
1 28.6006 12.4321 20.4508
1 16.9849 12.2787 20.2243
1 23.564 4.57171 12.8189
1 8.42983 28.4861 23.3437
1 0.718393 24.1292 25.6069
1 21.5161 9.01834 6.07371
1 10.3422 12.3553 13.0139
1 3.35553 6.01789 24.3368
1 22.8134 28.0896 10.7701
1 21.0407 29.8864 20.8694
1 12.5787 0.960911 6.53966
1 17.1388 4.93173 16.1584
1 26.4889 28.2689 1.04066
1 14.9041 27.7298 25.2821
1 4.96136 24.0498 7.25611
1 24.3383 7.56258 12.3412
1 30.0378 30.2418 25.5751
1 5.34445 13.3727 6.63691
1 2.46075 18.5669 27.7206
1 23.3955 9.0762 23.0323
1 8.55362 27.1048 15.9379
1 9.52614 9.23886 20.0936
1 0.975716 25.5314 24.8984
1 19.9404 21.6088 19.8706
1 25.6948 23.1839 2.46353
1 23.9568 15.4438 3.68353
1 0.47483 28.7291 13.4213
1 21.3876 16.9466 25.0008
1 12.9252 22.0706 27.6213
1 17.0067 15.0891 15.2204
1 1.52281 1.73385 6.2263
1 2.79898 8.93402 12.7313
1 7.925 23.4951 16.0038
1 22.3086 26.9037 20.1421
1 23.3088 4.03236 15.3908
1 6.15502 21.4005 15.3919
1 0.721636 1.81768 7.5549
1 4.16073 3.23282 11.6941
1 13.0633 6.84443 28.4137
1 6.36013 22.5654 22.2583
1 2.9643 1.05028 19.8447
1 14.4596 17.6366 2.94044
1 19.0815 4.51371 2.87227
1 23.0436 25.9216 14.2963
1 8.50744 14.9941 15.5321
1 5.7355 4.7976 13.4812
1 7.39739 11.5906 27.277
1 25.5455 27.4758 23.4451
1 4.93977 11.89 15.5231
1 15.4772 19.2814 10.291
1 12.1836 17.4606 7.96204
1 20.1867 0.235939 18.2361
1 26.7899 0.768821 22.2432
1 14.5976 23.9009 7.16707
1 9.63641 5.89481 21.9658
1 4.04734 29.1073 29.0128
1 0.559299 1.25629 22.0901
1 26.6335 8.28228 11.5406
1 3.18211 26.3622 15.7776
1 27.7115 15.6627 11.2851
1 18.1697 26.0603 20.7547
1 19.3671 18.7253 26.7965
1 12.646 20.1824 14.2652
1 20.8365 1.54966 10.2246
1 27.702 20.7291 8.13521
1 7.46822 17.3548 27.5346
1 29.3923 11.9665 2.24885
1 7.30989 3.15138 7.17366
1 20.106 4.30785 20.6716
1 25.3742 3.09544 19.3229
1 14.697 14.0262 19.2435
1 9.01241 1.90579 6.29399
1 17.4109 6.3423 26.5393
1 21.2442 19.5553 13.9187
1 17.5808 25.4385 24.6324
1 5.98795 3.86032 17.5677
1 28.0916 8.42529 6.06115
1 19.6612 30.2451 28.3399
1 15.1329 12.874 13.0403
1 29.8972 13.8341 23.4329
1 3.32299 7.07806 15.5542
1 2.4465 19.3526 11.3964
1 14.8539 23.817 16.8223
1 21.3792 10.9526 9.49136
1 17.8088 23.2237 4.61772
1 4.93054 9.52231 12.624
1 13.0215 27.3612 16.9951
1 12.9484 1.42698 26.5254
1 22.2757 29.1471 28.009
1 7.30881 28.6036 0.183048
1 4.07685 7.70585 9.15619
1 28.6089 17.286 10.0959
1 10.4841 21.7835 9.22208
1 26.9523 12.1812 24.6259
1 22.6362 21.1766 1.84871
1 11.6032 19.163 16.83
1 1.05071 26.6259 25.6029
1 6.21337 17.1699 15.3623
1 16.9937 0.918694 11.4619
1 13.7816 15.6799 5.40118
1 24.6746 2.77714 14.1531
1 29.3836 22.7854 21.2786
1 18.8908 26.7945 27.4318
1 6.00237 2.56039 6.51318
1 16.4282 7.26501 2.84307
1 17.9814 11.8842 29.6599
1 8.62623 28.421 29.5318
1 28.9976 14.3611 17.4538
1 9.42105 16.1208 29.0593
1 13.4279 29.1925 28.8782
1 5.60713 8.43548 6.11384
1 6.54679 6.49777 15.3937
1 5.41459 11.1107 29.6506
1 4.42459 20.6526 29.5174
1 18.7654 23.3209 1.44622
1 4.23505 18.1474 29.1625
1 8.23817 2.17501 18.6297
1 23.4149 9.69848 1.59778
1 29.503 1.92655 7.58568
1 29.7952 28.2355 15.7386
1 7.40021 14.4181 16.2481
1 0.408984 22.5259 16.7256
1 8.4447 8.22555 15.6002
1 17.8015 1.6623 0.888308
1 19.7 17.4713 26.7486
1 5.08301 14.2947 24.3182
1 28.7279 4.89265 20.7075
1 10.914 21.8272 11.6436
1 27.2205 19.0755 28.0726
1 15.2328 4.92113 17.165
1 5.81615 24.6375 6.05553
1 10.521 24.258 22.2909
1 1.16661 18.1959 7.1044
1 3.76284 23.8328 6.87733
1 22.4064 11.1419 8.46039
1 7.12957 5.57409 4.35674
1 5.51272 13.4302 1.22297
1 11.4045 3.00322 13.0598
1 9.2503 1.67165 13.637
1 18.4313 26.9321 4.29975
1 28.0964 4.26991 7.78426
1 0.993763 4.91726 7.79647
1 8.89367 18.1449 6.69055
1 16.7431 4.60732 3.41118
1 28.2326 11.5506 7.3375
1 9.47368 1.47318 26.839
1 6.87808 26.4157 12.6027
1 19.2623 21.6523 27.0467
1 27.3374 16.3793 17.4591
1 26.5476 16.5674 2.24492
1 28.7463 24.724 18.195
1 26.3715 26.5405 5.99756
1 5.5586 28.2272 14.702
1 10.8092 22.409 13.4087
1 3.9056 16.9898 3.82625
1 14.9307 7.53215 6.57517
1 8.271 28.7434 2.65485
1 18.2825 29.1079 10.9156
1 6.3958 6.88133 28.9123
1 29.5052 13.3289 29.5031
1 4.18804 14.7403 28.0252
1 15.7662 24.1503 19.3863
1 17.2043 20.6515 1.12003
1 24.4652 25.9208 27.0912
1 7.33956 5.45614 11.5687
1 5.69465 19.4969 24.5279
1 14.5179 0.697709 9.82903
1 5.24255 20.5745 3.69815
1 15.5511 17.8595 0.84994
1 6.64408 18.3395 5.18171
1 29.0657 20.3159 15.3776
1 30.4712 15.7602 27.7086
1 2.05102 10.5561 3.75116
1 4.40038 13.621 10.235
1 7.1877 13.1019 14.448
1 13.5624 2.08078 23.6725
1 9.41443 28.7492 1.80094
1 7.25085 28.331 17.4245
1 2.68257 21.1934 7.7319
1 9.23684 28.2006 10.8658
1 23.2805 12.0747 5.03929
1 25.0911 8.14569 9.23467