4096
Atoms. Timestep: 620
1 10.7099 11.1413 13.7888
1 19.8156 29.5278 9.67834
1 20.0381 16.3305 20.7382
1 20.9172 15.0263 11.0131
1 23.7304 4.68019 19.2201
1 10.1655 0.368035 15.635
1 21.5382 25.3652 21.2172
1 21.1171 24.1435 0.254212
1 30.0813 9.51433 10.2566
1 7.94822 20.8188 13.4711
1 11.0211 14.6648 14.124
1 27.7204 1.08733 22.4765
1 7.83931 16.0415 5.17376
1 23.2148 29.5525 7.87163
1 27.0287 23.289 18.449
1 23.8892 27.1114 25.7525
1 18.6949 28.5578 23.0556
1 2.11193 22.7391 8.25944
1 22.4552 28.3477 9.91754
1 20.8469 12.8934 21.4047
1 4.47987 7.88887 15.585
1 29.8664 29.6936 0.716912
1 25.7618 5.4947 0.578047
1 9.22567 29.049 18.7044
1 11.3137 15.239 10.0629
1 28.3673 5.93506 14.8082
1 22.2503 9.63336 19.2571
1 28.8905 2.86438 10.8503
1 13.1856 28.3269 29.4304
1 24.5999 5.7889 20.2303
1 0.409393 17.1038 8.86715
1 29.1192 28.4244 8.40582
1 16.3652 7.6518 1.20396
1 0.231696 7.93961 8.16349
1 17.9874 5.08725 25.5906
1 28.9488 5.14285 2.45607
1 20.1623 18.4536 11.3051
1 4.19366 25.1134 28.8342
1 26.0131 27.0739 6.98835
1 0.771622 12.8409 11.3022
1 3.45628 20.3141 4.59442
1 14.5056 26.7474 22.2614
1 8.19466 11.0403 2.06841
1 12.7355 22.9526 25.1781
1 9.13866 17.5567 23.4073
1 1.38453 3.0257 15.6731
1 7.52201 28.8052 0.477703
1 13.6977 7.12173 3.9234
1 7.43724 19.7326 16.9913
1 28.6275 10.3392 24.7608
1 6.92235 13.9101 27.8923
1 19.2668 23.164 6.51332
1 4.81076 13.5726 14.8805
1 10.0971 29.8257 9.75352
1 26.2022 2.18463 20.0254
1 25.7712 1.43884 4.463
1 28.5324 18.0967 29.7918
1 16.3727 20.9264 12.5229
1 26.8614 27.5732 25.1239
1 29.0787 4.12251 1.66018
1 1.93466 6.20269 13.9483
1 15.1526 16.4031 1.56193
1 11.4462 28.0357 19.1085
1 17.7243 24.3818 3.15295
1 20.244 11.5067 19.9178
1 21.4362 21.4009 25.3403
1 18.5855 27.7375 2.84113
1 29.8434 16.0822 13.1392
1 26.0618 3.85548 23.6735
1 8.26899 26.9612 9.50106
1 5.04875 17.6915 23.223
1 6.38288 27.9716 12.4096
1 28.5126 15.9506 28.9093
1 5.47872 6.53851 4.18315
1 1.07661 23.7645 8.19335
1 6.8514 9.74593 11.7718
1 22.5426 7.55418 10.5857
1 21.0321 14.5704 16.7653
1 1.42619 0.380997 7.09882
1 27.1092 6.45177 20.7935
1 10.684 28.0386 2.95096
1 8.21648 18.0521 9.92187
1 9.77408 26.3535 27.098
1 20.3192 26.107 5.53237
1 21.6823 26.7034 19.2517
1 18.5709 8.08512 9.31034
1 21.8016 14.2574 13.2065
1 22.1249 14.0455 21.1354
1 23.3107 1.02326 20.3726
1 2.5504 2.73977 9.24691
1 9.60092 28.9744 7.57096
1 7.98455 9.33679 15.4317
1 23.1282 18.0253 18.7333
1 5.82626 28.5012 28.8183
1 20.4269 30.1477 28.1849
1 5.48345 12.1672 9.82155
1 12.6249 23.3064 15.3817
1 23.5257 14.5337 15.6367
1 30.1491 29.4357 28.2283
1 10.564 18.221 5.94833
1 26.9752 24.9144 4.98305
1 14.9994 6.70855 22.2647
1 22.6077 20.1164 19.8737
1 11.9017 15.9421 16.9095
1 28.2839 7.89648 17.9864
1 6.77892 8.17388 1.90696
1 25.9354 16.9855 27.3235
1 16.8226 13.7973 28.2744
1 3.62477 24.2071 14.1594
1 26.1718 15.6661 20.206
1 28.8553 25.2707 6.93664
1 8.87499 21.8697 25.5201
1 8.57997 11.154 24.4995
1 1.53238 15.8571 29.5231
1 9.40554 2.88157 22.7395
1 13.6423 15.704 7.67241
1 29.5413 7.09725 1.0176
1 19.0884 21.779 1.71911
1 11.055 13.729 8.25363
1 12.5751 16.5528 1.28317
1 2.87628 28.5099 18.3331
1 7.29163 5.08694 17.9796
1 28.9169 23.9991 30.0121
1 17.5677 26.3003 4.8512
1 13.5814 18.2803 22.2201
1 14.7953 2.29969 9.46255
1 8.92295 4.19869 28.9249
1 6.9581 1.13941 20.7128
1 26.5528 16.91 1.61117
1 24.3112 29.4836 13.3081
1 5.29318 27.5917 6.1638
1 23.2457 0.956173 0.26111
1 14.3184 5.48816 17.6809
1 12.374 1.92717 0.891444
1 15.8437 18.251 14.0078
1 9.80787 29.6863 26.3429
1 27.2945 7.28042 24.8211
1 9.14775 20.183 24.0969
1 23.461 4.14044 4.90599
1 18.2055 26.2116 13.618
1 18.8925 17.8176 11.3498
1 0.86758 25.2577 30.1767
1 11.4939 12.0264 10.325
1 18.0609 4.80667 18.5489
1 8.71456 13.295 20.6887
1 8.11874 24.129 23.7153
1 13.777 24.4134 22.0557
1 15.1879 15.0728 8.19141
1 10.9884 25.2331 13.1224
1 17.1818 21 23.6109
1 0.660458 4.33978 29.4366
1 15.4183 30.1694 0.221571
1 15.9227 25.4369 14.6777
1 18.4345 6.6432 6.77513
1 19.1521 8.64983 15.0296
1 3.72115 15.4517 15.9581
1 5.85464 2.87353 27.3752
1 24.3096 7.18842 24.8086
1 18.7578 11.797 10.5952
1 12.8519 3.22071 24.447
1 15.4942 9.94484 9.3434
1 1.94069 9.04638 5.08531
1 10.1113 25.4827 19.337
1 28.7508 12.0351 29.2739
1 27.7364 29.7181 27.5377
1 13.6985 29.3552 25.3056
1 26.7927 1.31838 15.8346
1 16.1783 10.0453 29.0382
1 15.366 5.28789 4.61453
1 0.563762 15.8594 19.6655
1 20.9674 6.72876 7.87467
1 23.7283 9.60541 5.50347
1 10.214 11.9251 1.22298
1 4.53628 8.812 28.0476
1 26.3109 4.35652 6.0089
1 9.25222 9.71128 0.275091
1 19.9765 18.945 10.0485
1 20.0318 9.22849 24.4065
1 4.15208 2.45948 3.45852
1 2.21922 22.0883 6.99099
1 6.98984 25.23 18.5945
1 20.7746 29.819 23.2912
1 17.1487 9.99547 14.2542
1 19.8865 1.25214 11.3658
1 9.01693 10.6585 25.8431
1 24.9133 9.61097 3.05635
1 0.163304 27.5976 15.2576
1 22.8163 25.3704 13.209
1 22.8377 10.8171 7.14742
1 15.6704 4.46783 15.5215
1 21.0059 10.5695 27.7162
1 4.10062 15.4481 6.82752
1 17.0966 11.6003 16.4081
1 22.116 8.72515 0.77496
1 25.3196 17.6648 23.9225
1 0.814125 16.2342 14.0163
1 26.7926 16.2533 25.1405
1 17.5875 11.836 5.41675
1 10.879 12.9969 11.0739
1 4.98312 19.657 13.0961
1 14.485 19.4029 17.2587
1 28.9445 21.0546 23.745
1 20.4542 14.5461 29.0869
1 9.75742 4.49125 26.1569
1 26.9732 3.66564 26.8599
1 11.2473 7.2579 17.8605
1 21.402 25.812 0.183645
1 17.6453 15.5575 8.73229
1 1.36663 25.2237 8.3847
1 0.291925 22.3056 5.24093
1 28.2515 9.63736 8.9452
1 21.3777 28.3906 15.5266
1 5.61454 27.1181 8.95011
1 4.04344 28.0866 24.027
1 13.2121 7.84026 26.948
1 1.52222 2.98003 6.43742
1 11.6193 18.9052 15.129
1 0.243273 8.38618 15.9743
1 19.0266 26.6172 2.38618
1 14.272 27.3996 8.09908
1 9.44581 7.57039 19.6598
1 5.5969 15.4944 22.2202
1 21.091 20.7811 15.353
1 6.14208 7.25596 8.25119
1 2.52085 12.8391 25.292
1 8.2597 16.077 27.3807
1 23.7499 13.1533 0.688567
1 25.9983 17.9442 21.6078
1 16.3963 5.23749 2.50872
1 28.2452 0.834205 16.2276
1 17.2629 25.6266 12.7825
1 18.7505 5.26721 3.45501
1 14.9313 29.2565 24.0488
1 20.6863 12.3086 22.6758
1 2.71338 29.3832 14.8396
1 22.4623 0.573832 1.34503
1 9.21369 26.2722 3.71625
1 14.7749 24.3912 22.9689
1 7.41218 26.911 15.4202
1 25.8322 11.7469 23.3356
1 4.28003 26.5988 15.1952
1 29.6523 11.0329 7.0122
1 25.8525 28.2636 20.9542
1 16.7847 28.6294 21.1476
1 1.98455 30.1426 26.6209
1 13.3016 9.5638 6.23205
1 22.2678 19.5876 11.9779
1 20.0033 14.8917 24.2243
1 8.93195 8.63525 8.11069
1 6.51599 29.0976 23.8431
1 8.80458 11.4872 5.54601
1 5.53229 13.0961 19.2493
1 21.2017 26.1137 2.7343
1 22.5754 6.32043 0.346105
1 21.0121 1.83977 13.3622
1 21.3297 25.3297 15.2884
1 3.60628 29.1687 29.6866
1 21.6873 11.9079 12.7463
1 2.79145 3.28529 15.3792
1 22.6242 8.36356 15.1088
1 19.1889 9.47916 6.04466
1 25.1012 13.7149 7.2757
1 19.5635 28.8674 25.2901
1 6.34216 0.584143 12.7336
1 16.5558 29.2749 6.55117
1 1.14663 4.61381 12.7474
1 10.1702 1.3208 8.38248
1 9.08964 15.5989 10.7666
1 25.3469 28.4317 6.31817
1 15.0405 25.4432 28.312
1 29.5006 9.0569 15.0352
1 4.57463 25.2946 14.1545
1 6.81389 5.91901 2.11151
1 20.6044 4.18353 8.47405
1 5.06212 3.96449 26.9925
1 28.2262 7.11356 28.2514
1 13.5046 13.43 11.6398
1 14.8536 7.97012 16.1074
1 7.4024 15.602 2.80625
1 17.3846 19.4403 22.0687
1 11.1264 18.4813 13.7424
1 10.1686 16.0794 14.5398
1 3.7023 11.3224 14.6508
1 28.592 9.84032 15.9503
1 1.97658 6.46345 2.88092
1 24.1158 0.559838 22.8581
1 19.9589 25.6817 15.653
1 11.4853 21.1331 10.1137
1 6.32362 23.0791 10.1686
1 22.9256 18.1369 2.75087
1 3.51356 5.44413 11.2051
1 4.37835 0.187076 21.5676
1 19.6154 16.3051 1.22369
1 0.360573 12.8549 21.9043
1 16.1821 3.34375 16.3277
1 27.6871 6.59441 5.45691
1 20.3598 28.3749 17.5283
1 28.5609 15.4517 20.9922
1 11.9161 27.7092 29.3619
1 0.180575 11.7419 24.9401
1 2.67799 17.5959 2.03165
1 1.90543 17.1165 29.6079
1 2.14502 23.9527 28.1687
1 11.6186 18.7735 25.8186
1 14.0349 7.83649 24.2868
1 4.16345 20.3996 18.2694
1 0.568639 21.7495 11.5821
1 8.41282 14.5412 20.9936
1 29.1918 27.4982 30.2594
1 29.6182 7.39334 3.26059
1 24.4351 21.9652 16.3967
1 29.0532 19.5715 12.3636
1 1.39003 7.2959 11.646
1 13.1231 28.141 7.56259
1 27.6338 13.4628 9.89644
1 24.9079 4.72312 28.3246
1 12.3562 30.189 11.9083
1 16.1171 11.692 10.8231
1 14.3359 23.7907 16.8466
1 29.286 17.1603 5.95066
1 14.4117 18.633 12.191
1 14.1906 16.1879 12.2628
1 11.2545 12.8689 22.3515
1 12.5812 0.33748 1.05343
1 13.8029 19.1673 6.13118
1 19.5933 12.3167 3.29454
1 0.588708 12.4183 0.347051
1 8.41082 14.0696 8.48512
1 26.9695 24.8853 15.083
1 24.2094 17.1636 8.58256
1 24.088 19.127 1.16273
1 25.0411 0.966472 6.37783
1 5.35039 15.4495 3.38428
1 15.4137 13.6279 19.6035
1 22.097 16.2272 9.20056
1 27.7215 26.2524 0.949317
1 28.0436 21.0631 22.7344
1 30.1538 24.9314 12.2205
1 7.47375 4.10793 28.4393
1 4.56381 11.3849 25.8473
1 11.5174 26.1781 29.7339
1 17.201 23.8899 22.1048
1 9.59858 22.3416 17.3053
1 17.4807 2.81004 14.2044
1 9.16736 0.785335 25.8654
1 24.4571 28.681 16.3752
1 28.8092 18.9983 9.86032
1 10.9763 25.3379 16.8911
1 30.2292 12.7699 24.1272
1 1.86459 22.5869 24.8119
1 23.8784 4.08732 0.485612
1 6.68703 24.0104 17.2647
1 12.5519 7.99957 10.0739
1 0.427549 28.4327 27.5088
1 7.91565 13.6362 24.9781
1 30.2547 10.2667 14.5885
1 6.46552 25.4491 10.6948
1 8.92489 2.04259 16.0015
1 8.96315 1.71234 28.9432
1 21.1804 13.4396 11.1643
1 11.4217 23.8171 13.1238
1 12.5755 5.34178 1.95842
1 5.11621 3.176 0.358335
1 28.3177 12.4737 4.30367
1 13.2323 19.2711 9.15401
1 6.993 1.28788 17.6908
1 8.96234 27.0743 5.88032
1 26.9087 7.65264 3.27977
1 2.9907 12.3582 21.1569
1 7.13023 9.08092 6.15916
1 9.73689 24.98 7.23058
1 29.1263 22.9333 16.0945
1 12.8901 13.4871 14.3464
1 17.4193 2.18745 3.41986
1 29.2088 5.38866 13.7594
1 7.65773 27.6407 7.25475
1 2.65155 7.77766 9.22183
1 15.0756 24.9106 27.0232
1 29.6327 12.9447 10.5297
1 19.676 4.32986 10.6558
1 29.3409 15.1255 26.3979
1 18.8879 8.48696 0.883637
1 24.592 9.96065 12.7638
1 26.7138 1.19301 13.4429
1 21.5348 12.6135 1.89047
1 9.41856 8.3414 17.286
1 27.0521 25.2819 1.81564
1 6.15745 28.0509 3.24254
1 28.1449 8.47913 16.4838
1 6.19857 24.1419 5.56869
1 14.683 0.578687 29.4974
1 23.2378 7.6309 0.628675
1 2.1483 20.9162 19.4188
1 13.3783 29.7725 20.3759
1 21.739 11.6782 14.3534
1 18.5083 28.6956 27.8766
1 2.85749 15.3472 8.93373
1 22.3435 19.4418 8.15545
1 5.10907 17.4596 19.4959
1 4.60726 24.7458 2.57635
1 12.8528 29.635 17.409
1 26.8462 3.53081 22.2862
1 20.5051 15.5133 21.857
1 18.2246 29.9774 16.1916
1 23.6353 22.6549 21.1261
1 10.3573 24.1519 9.31812
1 9.95483 22.8112 8.88925
1 20.7958 10.1438 29.2989
1 4.35676 12.16 1.38844
1 16.5697 28.5419 15.5555
1 10.3662 10.0274 20.477
1 29.107 26.1504 0.467315
1 2.30874 10.0708 21.7289
1 2.77777 21.9501 12.8488
1 16.2219 20.2841 22.3847
1 2.99777 12.4322 2.04552
1 5.649 30.0406 18.3862
1 3.34443 0.196059 25.6914
1 23.0747 12.5677 22.8742
1 3.71312 14.5728 12.2702
1 16.8924 6.6442 2.53807
1 11.5279 0.731563 27.2955
1 5.54319 5.46106 15.5951
1 5.94392 3.27444 20.7649
1 6.13416 7.16043 5.31755
1 1.80894 22.0956 9.31284
1 29.2356 10.0443 2.7033
1 9.62726 22.5307 20.9214
1 24.7992 13.5628 20.134
1 1.7107 22.4523 12.1264
1 2.64604 27.6972 17.1371
1 13.5815 28.1274 13.4354
1 2.40198 3.0962 18.6851
1 0.363542 21.8362 29.9739
1 4.83855 20.2266 19.6316
1 26.2032 22.2776 4.79051
1 15.7915 22.5751 1.87019
1 13.2556 25.3249 24.2705
1 0.953806 1.36167 19.7238
1 11.4893 17.6795 9.87682
1 2.87353 30.2638 10.7152
1 9.31693 5.29271 29.4512
1 10.1381 27.8297 18.752
1 19.578 19.8483 25.9807
1 7.05481 6.74678 28.9991
1 25.9851 18.9485 20.6743
1 26.6671 20.3394 20.6174
1 8.17785 23.9446 11.9475
1 25.6935 15.038 3.15325
1 19.4388 18.1755 3.07885
1 25.0006 29.092 10.713
1 26.8425 27.1222 0.292116
1 14.0339 1.36542 8.77106
1 15.8573 17.5088 22.4889
1 8.59274 6.80328 15.4347
1 29.7149 18.2514 11.949
1 3.82092 14.1252 0.700056
1 21.5384 23.5072 15.0191
1 20.7054 10.3042 16.0656
1 17.4129 3.34632 11.7582
1 6.87129 2.75397 10.0285
1 2.20468 16.113 16.2214
1 29.3752 18.419 5.36522
1 26.1691 7.18072 12.1868
1 26.9219 23.559 26.1028
1 24.2121 11.132 18.5143
1 8.9591 29.8126 28.802
1 10.8361 20.6398 4.43852
1 11.3444 26.4507 5.87328
1 15.5654 24.5125 17.7317
1 22.8749 20.6691 10.8572
1 11.1224 16.8575 7.90957
1 5.00093 2.14284 11.9737
1 23.2608 23.4873 26.5416
1 4.3114 28.2367 18.2633
1 1.90855 3.37726 29.2492
1 22.9832 7.16899 7.07117
1 29.5043 18.2635 19.299
1 2.99703 29.077 21.317
1 29.5631 13.8051 7.62508
1 7.55399 11.2184 5.60292
1 20.7216 15.651 17.8929
1 22.7329 28.5502 28.5147
1 16.285 8.89878 21.7333
1 21.0739 1.75812 24.5695
1 5.59588 0.168024 30.3222
1 22.2455 15.2482 10.283
1 16.5296 3.03306 18.4576
1 4.53383 2.30605 7.10151
1 19.1997 23.7093 18.9575
1 24.2043 21.263 4.52611
1 25.9386 28.0078 27.6755
1 11.7672 5.34227 13.7296
1 10.4861 17.5774 24.0921
1 27.8537 3.86436 3.61795
1 16.6337 22.5723 18.6038
1 21.7881 26.1525 23.813
1 29.4478 2.56063 4.52289
1 7.97047 4.95173 5.44544
1 10.3056 11.2593 27.6757
1 21.1391 27.4777 2.59621
1 24.7114 24.4002 5.66014
1 21.1601 19.5042 0.629519
1 0.633056 5.85603 23.6738
1 21.4313 26.1642 13.8424
1 9.65328 6.28322 6.85918
1 6.76615 10.5472 28.773
1 15.4633 4.49685 10.1686
1 11.4409 6.4083 0.359885
1 12.5069 11.3993 9.66986
1 7.86306 20.6068 17.9697
1 21.7396 19.0283 20.401
1 12.6309 4.12104 13.6058
1 7.08591 29.4607 13.082
1 3.50502 18.9169 27.2127
1 5.79053 0.204587 3.50295
1 22.3124 30.1386 19.766
1 19.3619 17.3713 21.3587
1 6.97432 8.87422 3.2859
1 14.9231 20.6758 5.02606
1 24.0298 25.0671 23.9824
1 7.22172 24.9473 14.0778
1 15.9218 4.85968 11.3357
1 4.88878 11.1223 2.39957
1 12.4939 28.9485 11.2472
1 22.5393 8.52668 24.1222
1 11.0551 8.59517 3.33466
1 4.21876 28.1615 13.3454
1 4.82864 24.1913 17.2028
1 24.1545 27.0163 22.535
1 16.3457 7.75117 15.9414
1 13.057 8.59915 0.397631
1 18.8135 5.54568 10.2207
1 3.10812 3.55929 3.84518
1 21.8863 6.28545 4.3824
1 24.9033 0.494427 5.05115
1 20.6166 16.626 8.87634
1 14.2868 24.1927 12.4369
1 28.6839 15.96 1.43793
1 3.09449 13.0042 9.08343
1 2.47301 25.3235 1.31271
1 11.109 14.0856 12.0279
1 13.1205 24.6174 0.875607
1 21.9761 20.3635 28.3881
1 15.3536 9.10232 26.6596
1 25.7493 8.12255 30.1002
1 19.9125 15.6908 10.1358
1 26.4436 29.2617 13.1769
1 11.1483 28.1908 25.2388
1 6.81818 27.8492 18.6202
1 5.70736 2.94039 12.7782
1 6.77402 23.7436 26.5206
1 2.81518 13.4236 16.1573
1 14.4511 0.168492 25.9364
1 0.737236 18.6625 1.11125
1 8.06255 4.93794 12.3128
1 0.687627 0.27771 0.235414
1 28.6074 4.64794 23.561
1 10.0246 13.0231 29.1236
1 18.7483 29.9743 29.9945
1 3.63107 5.7585 24.3045
1 24.4511 19.1719 20.2773
1 23.0667 28.1945 7.58328
1 6.44032 18.8767 11.4266
1 25.0035 9.82359 4.65675
1 27.7209 30.2741 3.88066
1 20.2947 1.90468 8.00696
1 19.7599 15.0783 13.8071
1 19.2556 6.60002 11.1542
1 10.6026 2.48031 9.349
1 10.3356 7.71514 13.4341
1 10.0469 26.3405 30.2864
1 10.3726 21.9723 29.9604
1 17.4129 6.57988 29.154
1 25.5246 29.6517 23.1855
1 13.1093 1.52028 6.47743
1 17.9323 17.034 17.3111
1 29.9551 10.704 26.8667
1 26.6789 22.7858 17.3201
1 23.8783 9.42848 26.7939
1 10.5975 5.24815 30.2355
1 28.9722 8.22446 13.9706
1 16.0139 5.1138 14.4193
1 17.5355 7.19302 4.61305
1 8.42581 26.3382 24.6355
1 18.8633 7.84349 10.6411
1 2.22961 11.3651 14.1364
1 19.0416 16.9092 22.5495
1 2.50736 17.4312 22.3703
1 24.0096 15.2461 22.9626
1 22.8488 0.810554 23.3538
1 10.9732 20.8199 22.9255
1 22.8781 24.459 6.90211
1 14.0947 27.1093 10.9447
1 8.17561 24.2768 14.9112
1 9.12706 3.1769 26.0476
1 13.8414 15.3668 20.2159
1 21.1215 10.1322 18.3091
1 5.42655 25.8386 2.0449
1 22.5587 25.7677 16.059
1 7.63472 18.5169 19.1226
1 20.5993 4.36812 27.6129
1 25.6894 5.93117 1.97186
1 14.0292 12.9364 9.65223
1 6.91522 21.0469 18.7706
1 27.1321 11.2232 4.19274
1 12.8791 11.9317 4.72591
1 3.92303 15.0481 14.6174
1 3.89671 10.2382 25.7322
1 5.17915 28.1199 2.39233
1 20.9134 23.8704 11.4945
1 25.6029 21.2304 29.1466
1 16.4307 7.367 3.88105
1 0.605123 26.4341 17.9037
1 26.1122 21.7811 24.2817
1 6.16594 5.59729 17.105
1 28.6221 18.4109 20.4369
1 5.87366 3.94841 4.72364
1 27.8431 0.952067 12.5716
1 23.8878 18.0668 25.774
1 20.4406 19.0711 3.57125
1 28.5037 18.234 2.5861
1 15.681 2.51683 23.2745
1 25.0743 10.3163 24.9099
1 13.9569 12.904 17.6188
1 16.0155 4.37801 21.1162
1 6.24756 24.5353 27.7329
1 14.02 16.9825 0.793924
1 0.893274 29.0933 10.3935
1 21.2003 2.16506 20.4373
1 22.4675 24.6794 9.66168
1 17.8786 28.1303 9.8726
1 14.4992 23.0268 20.528
1 3.46151 13.7751 27.9524
1 13.7129 18.7135 18.521
1 8.98431 26.1004 20.0582
1 7.75694 23.5333 1.60032
1 10.7602 27.1316 10.1021
1 2.11101 11.7938 12.4583
1 5.82103 4.22204 24.4079
1 9.72571 16.0511 27.1863
1 23.058 27.9384 1.28415
1 27.8722 23.8035 4.55901
1 3.49762 19.3862 8.98133
1 11.2609 17.05 13.5485
1 25.3748 4.98203 3.41716
1 21.715 14.1671 19.3399
1 30.1569 11.5967 29.5281
1 26.0195 14.0133 2.44608
1 8.4429 19.519 28.9246
1 21.4726 17.8553 19.3748
1 21.7267 8.55178 6.33733
1 17.7626 1.99361 28.3394
1 28.2744 26.5066 3.57686
1 22.0837 17.4973 6.50233
1 11.4676 23.4003 19.7668
1 11.149 26.7879 21.8975
1 19.621 17.5575 7.82537
1 17.1523 26.6429 29.0312
1 16.8904 7.49732 14.8106
1 9.1672 0.604878 22.251
1 11.7035 30.0027 4.39905
1 16.2806 7.167 30.0276
1 4.78589 13.6394 4.29592
1 17.5674 29.6276 22.7653
1 1.85259 24.1691 5.68883
1 24.489 0.583257 21.3907
1 3.46444 1.73378 13.7546
1 14.8758 12.6699 16.6595
1 3.49919 2.25144 21.2838
1 1.30958 12.3987 17.9275
1 26.3732 22.9798 1.2238
1 15.2529 26.6654 19.9238
1 26.5624 5.8416 5.55596
1 24.4625 8.75393 7.88975
1 6.01062 19.2478 27.5109
1 10.4048 21.5043 9.67425
1 5.50845 20.0431 16.1574
1 7.14232 15.7358 19.2011
1 19.0473 25.2142 14.5021
1 1.66605 5.88707 7.7713
1 27.0279 11.8219 12.7804
1 20.0169 28.0574 7.38024
1 5.43694 9.69206 19.0652
1 1.86461 9.4367 25.4462
1 11.2853 28.2337 0.476926
1 17.4757 14.4585 1.72377
1 14.3153 9.37753 0.168334
1 12.7344 27.6967 23.49
1 14.0829 21.3242 14.2523
1 11.1403 19.933 26.4164
1 26.9248 29.7154 4.91362
1 19.4037 21.8728 11.2965
1 15.4882 13.7531 7.80369
1 29.6456 22.735 30.1289
1 3.81052 15.8991 19.3844
1 1.95827 10.5151 12.9729
1 24.9629 13.0288 6.03918
1 8.0205 6.1521 2.5207
1 21.4164 15.1323 28.0748
1 26.502 1.58472 7.73017
1 3.77248 3.91692 26.5973
1 17.5647 11.9559 12.941
1 23.7806 8.7595 17.2823
1 2.81614 11.7884 29.5849
1 9.12324 25.0335 11.5453
1 15.4399 17.8204 11.6777
1 7.17893 3.21533 11.3806
1 6.51485 15.4477 7.39952
1 28.21 7.1691 4.20328
1 10.0129 9.97618 10.5859
1 19.3049 26.1116 19.8425
1 1.48834 3.11331 20.947
1 16.1888 20.7254 7.63634
1 27.8424 30.015 2.34178
1 4.35939 22.9339 27.3675
1 11.2216 11.3916 7.04106
1 29.182 13.6599 24.953
1 10.1239 10.4041 9.26995
1 25.3318 11.4073 8.37401
1 9.64796 22.423 14.9246
1 6.81236 1.32635 10.0724
1 30.3595 21.629 17.8524
1 29.4597 21.8598 8.50616
1 20.7826 2.94543 26.8998
1 11.6013 1.16474 4.32586
1 6.88571 12.5802 9.57101
1 29.9303 12.127 26.465
1 11.9288 7.42449 7.78434
1 0.434743 5.92583 17.2432
1 17.1416 18.3524 23.2592
1 18.4678 11.1426 16.7976
1 18.8928 7.26 21.2756
1 19.5118 24.0778 21.506
1 0.281666 20.4298 4.84771
1 9.50267 9.20908 26.2805
1 1.08924 6.80535 10.0448
1 25.8733 25.4929 28.9788
1 16.5476 24.994 15.9109
1 16.3141 23.8198 2.17235
1 12.1999 6.23403 17.7983
1 28.8273 25.2277 26.7953
1 6.00929 0.32303 26.9142
1 30.2657 3.617 19.2623
1 29.9567 23.0259 17.3417
1 4.6365 16.488 16.1787
1 1.00323 25.5345 22.3594
1 3.92777 6.36236 20.2936
1 17.996 25.7 19.8465
1 3.89945 10.4281 8.98551
1 18.3908 1.80052 14.6963
1 24.2918 7.81474 29.8447
1 12.2486 11.3035 20.0873
1 14.9564 11.3965 27.9239
1 27.5562 4.85434 22.5731
1 7.42032 5.86533 22.012
1 1.34867 3.32565 24.2194
1 18.4298 19.6444 2.05177
1 22.6993 6.88245 21.47
1 13.2597 4.22357 25.2399
1 26.5881 11.2063 5.56335
1 23.1209 14.3134 26.0889
1 11.8119 16.503 9.21817
1 19.3804 12.8847 11.5376
1 22.999 6.9882 28.1689
1 7.48675 23.0206 17.9958
1 29.7648 30.273 5.44202
1 12.9879 25.6126 2.70407
1 22.9644 7.28585 4.38136
1 4.56635 23.279 10.4996
1 25.1677 1.4788 17.8
1 6.16213 6.33388 21.3674
1 14.771 13.5506 28.7157
1 26.9628 6.47477 10.8849
1 11.3111 24.852 19.878
1 18.0728 17.1511 6.22434
1 20.9529 15.8101 24.7418
1 29.2893 15.9964 23.5772
1 9.42372 19.6137 12.3198
1 3.25517 6.62769 22.6645
1 11.6537 16.0942 19.8585
1 15.23 8.67213 13.3402
1 5.34212 10.7031 24.2309
1 27.49 0.586292 5.78304
1 23.724 11.0285 11.8118
1 25.0702 4.25647 14.7993
1 10.4573 15.9295 19.5338
1 19.5653 6.00408 19.6461
1 3.71816 3.63647 20.8716
1 1.95208 11.4585 2.39544
1 23.4802 27.4921 4.20056
1 11.4529 26.3453 10.9512
1 8.77762 12.5416 15.5145
1 25.5204 12.2872 22.0175
1 0.32385 8.58378 3.10007
1 6.83155 16.6716 11.8509
1 27.0805 13.9335 18.6625
1 0.20601 29.0114 20.6617
1 28.0197 3.05952 5.72428
1 0.664044 22.6686 10.0984
1 6.027 2.52883 14.1235
1 26.166 13.5086 25.2147
1 25.382 15.0398 26.9964
1 20.6812 23.4248 26.806
1 13.8338 16.9478 4.05457
1 15.4929 8.11414 20.8413
1 12.035 26.3945 1.78864
1 27.7899 17.5433 13.2563
1 3.89093 20.7366 2.02236
1 4.9129 26.3918 5.13615
1 28.5771 9.05596 6.11103
1 15.7629 5.53959 22.0312
1 18.1117 17.4597 23.3704
1 8.75969 29.257 12.5035
1 26.829 18.1531 29.2662
1 23.6741 11.9182 15.8982
1 4.70005 20.8361 22.2371
1 29.84 1.55427 0.594167
1 11.8947 18.9941 9.05708
1 7.99852 13.0259 18.408
1 14.551 10.7065 0.65684
1 12.0757 5.91259 24.1955
1 25.746 24.1773 15.2955
1 25.4976 9.94183 20.4694
1 21.6106 6.01151 1.54536
1 6.01732 19.9202 4.5842
1 21.7689 15.6944 1.21024
1 18.0875 4.10537 28.8999
1 21.1905 1.035 28.953
1 7.91554 14.7152 28.3202
1 27.5729 11.3962 6.57112
1 24.5999 3.57524 21.909
1 1.48601 0.737961 23.8908
1 0.964938 14.9623 0.332441
1 1.32716 27.5427 0.380162
1 26.3499 21.718 7.41946
1 6.20909 0.334423 17.1046
1 8.09071 2.88128 2.54881
1 18.025 21.4951 15.8783
1 12.1848 17.4092 20.4211
1 3.29813 28.7287 5.0703
1 19.2776 18.5429 26.8865
1 8.19968 6.86216 22.5532
1 3.08229 22.4936 23.9334
1 3.85517 27.1481 28.296
1 16.6693 13.532 18.3274
1 28.4796 11.4727 17.8306
1 4.08348 25.5117 26.3226
1 22.4327 4.16887 19.0658
1 28.491 12.6698 25.7096
1 9.60785 2.87057 29.2664
1 15.16 17.229 4.03198
1 5.57036 6.79047 7.09696
1 23.4869 21.0312 14.0041
1 6.4072 4.49646 1.42831
1 11.3544 6.07668 20.4403
1 28.8044 0.339248 13.3292
1 6.07536 27.4649 19.8911
1 11.9753 11.7807 24.7708
1 21.1285 6.44461 14.6337
1 6.25911 24.5815 25.5218
1 2.62327 11.2865 28.0344
1 7.27893 26.4547 17.7498
1 17.876 25.4406 26.344
1 4.23265 7.03493 3.77028
1 0.755935 23.862 27.8926
1 5.72178 11.5885 17.2506
1 19.0663 9.89898 2.78439
1 2.14425 2.45458 13.4879
1 16.7399 1.74632 19.3716
1 13.3297 4.36977 28.2594
1 22.5278 24.8895 1.71215
1 8.27273 23.042 8.82299
1 21.7784 18.1371 8.39502
1 26.3179 3.82478 3.2805
1 10.285 29.8134 14.5257
1 15.7006 28.7128 0.73205
1 2.64564 27.8415 7.50613
1 13.8574 15.7811 23.0822
1 25.8477 7.4027 2.13631
1 21.4395 10.4241 14.8079
1 3.01035 5.19377 26.4526
1 7.01525 29.8938 20.9307
1 24.5858 28.8541 23.7328
1 2.68163 10.3344 3.42121
1 13.9344 26.1228 8.64942
1 27.3225 18.2393 18.4397
1 26.6869 12.8002 24.1674
1 5.4427 17.1054 25.6225
1 10.1196 9.22734 1.18248
1 0.212445 3.37439 6.73246
1 5.43139 11.0434 28.3021
1 12.8887 16.6737 8.44442
1 27.6868 11.678 27.7882
1 9.43796 14.0175 9.51855
1 3.85691 4.87406 3.71364
1 15.9099 1.76961 27.0373
1 2.01859 6.0328 20.8077
1 3.07426 6.32735 27.272
1 14.8404 3.24265 29.5294
1 20.4816 17.1892 16.9273
1 27.715 25.5182 5.92696
1 16.8227 21.1308 0.774172
1 0.914465 14.4326 4.42867
1 13.352 4.78044 21.4361
1 4.74319 16.7159 26.8214
1 7.54 12.916 27.0035
1 3.84329 22.1267 9.85219
1 2.60879 11.6207 17.8711
1 2.86456 14.6096 21.1883
1 2.25643 27.5493 1.41589
1 13.7892 23.2421 15.7543
1 3.94696 0.52692 13.0204
1 22.5594 13.3101 23.6775
1 20.1006 3.45843 0.318601
1 5.41831 28.4186 15.4467
1 10.6662 17.6495 3.05084
1 19.7885 11.4882 27.202
1 1.64483 7.96363 3.08216
1 26.2856 25.7047 26.7947
1 18.4318 22.9472 24.2279
1 28.0479 13.5486 29.3823
1 13.817 17.8748 8.50441
1 26.1165 15.8149 13.1206
1 10.1999 22.1732 26.1399
1 5.42913 22.0899 22.485
1 5.35715 21.0188 29.0888
1 7.33379 11.9342 24.7917
1 27.6465 28.4566 4.84412
1 17.6118 6.11513 27.7512
1 10.237 19.4334 27.3499
1 19.8972 12.2712 8.1887
1 14.6693 4.43428 22.0549
1 20.6668 6.34927 6.43866
1 3.46054 13.7769 17.639
1 5.96746 16.6136 18.8477
1 26.8277 21.5675 13.3729
1 4.97973 13.5024 20.6448
1 2.46379 13.4304 1.21811
1 1.3843 28.9298 12.9786
1 13.2939 15.6926 14.3833
1 19.1137 8.60589 8.33872
1 17.5664 25.6664 9.9875
1 21.4529 19.0791 28.145
1 20.4308 13.6865 1.23717
1 25.3646 8.30014 22.3556
1 14.2934 14.7466 4.1491
1 18.0413 17.2697 19.6848
1 2.99541 28.9792 23.7565
1 18.1242 5.04358 22.1663
1 30.3584 22.9685 3.95161
1 8.77015 19.4029 27.7597
1 28.7515 22.4781 7.45426
1 13.5993 11.1901 28.113
1 17.8512 18.0458 18.3289
1 14.5366 17.2139 25.5553
1 4.1699 19.3559 6.57679
1 10.9937 2.03026 26.8387
1 6.27303 17.3171 17.4067
1 7.50828 21.743 15.6621
1 25.1195 7.21826 5.10724
1 0.78952 5.38845 20.8011
1 8.15561 16.512 18.8448
1 21.8405 15.642 18.8981
1 24.5311 27.876 29.5907
1 18.6777 3.73583 21.7706
1 11.312 10.536 8.48793
1 29.3945 2.01051 23.8755
1 1.21432 18.747 25.0097
1 22.4772 16.421 15.5871
1 14.9155 3.61683 13.2938
1 2.06745 26.4332 17.3827
1 24.8985 3.69532 18.6964
1 14.6566 22.9904 11.7353
1 8.107 23.6026 27.179
1 16.1899 6.71998 17.0092
1 1.0066 15.4599 24.5815
1 24.5304 24.6142 14.9822
1 13.9768 27.8753 22.9558
1 27.1514 0.272429 17.9418
1 8.99837 4.81178 6.7823
1 29.5443 13.8583 14.0428
1 27.2101 22.3688 28.5302
1 22.1789 29.6582 27.8953
1 28.9508 11.5522 1.9687
1 8.29394 6.33909 13.0694
1 6.22743 3.27266 8.8704
1 26.5762 27.8938 22.5882
1 10.9478 6.88763 26.4187
1 6.92889 2.89505 27.9681
1 1.46496 1.02289 17.5711
1 3.90819 7.74835 0.76355
1 6.11964 1.83532 24.0631
1 25.5018 3.72287 29.1022
1 4.47202 13.1322 9.99682
1 15.268 6.68369 18.061
1 19.5283 15.2157 18.5325
1 1.24335 4.46671 10.6782
1 15.3618 8.59914 19.3135
1 23.1242 13.1169 21.513
1 26.2059 10.6903 9.35428
1 13.5023 10.0384 7.60765
1 3.51935 5.8535 14.1771
1 19.2219 4.87109 4.6096
1 22.5263 25.7211 3.28565
1 2.17365 5.35621 6.39279
1 6.12748 26.9637 13.3422
1 3.59411 19.3268 25.2328
1 22.3822 1.00631 24.8671
1 10.2361 5.24356 16.7197
1 13.3046 9.07127 24.4147
1 11.9984 22.1001 17.3292
1 25.792 7.87801 15.9927
1 8.01587 12.825 29.5239
1 12.7942 20.7493 17.5104
1 10.9642 13.5805 15.2261
1 7.52534 5.46155 25.6078
1 9.89299 8.71204 23.2915
1 7.64467 7.85537 25.2141
1 28.6191 29.5016 14.3703
1 22.5551 16.501 21.3349
1 18.7159 21.9272 5.91654
1 19.142 29.4058 5.70709
1 28.6603 19.3273 0.404131
1 10.8716 15.2944 2.87563
1 13.4668 18.2188 29.0636
1 18.1754 3.73721 6.75634
1 15.6734 20.0701 17.9151
1 15.4725 28.0479 3.31419
1 22.6137 26.6001 18.1616
1 5.79709 6.98595 13.6595
1 3.42457 9.28312 7.89775
1 14.9175 18.8475 2.49832
1 5.06083 13.567 25.529
1 27.4149 14.1483 6.07702
1 4.92074 15.7018 18.3948
1 2.53613 27.5301 26.1265
1 27.5713 13.973 23.1358
1 13.1271 14.3686 25.3277
1 29.4813 16.8843 28.3491
1 15.2885 26.5973 14.5187
1 14.8463 27.0178 6.59553
1 16.4986 27.0681 12.2956
1 7.66668 4.32563 22.0778
1 20.5265 19.4974 13.3752
1 0.947157 15.9053 21.2543
1 14.6379 28.8747 14.1465
1 11.881 23.0694 22.7683
1 26.3006 22.5148 21.8245
1 19.5467 5.6548 6.52243
1 3.55709 18.7125 7.76583
1 23.4052 5.56909 9.75492
1 10.7172 7.41527 20.2435
1 27.9955 21.4912 10.619
1 13.0029 0.969376 9.72368
1 13.5411 6.74768 27.9021
1 14.6121 24.9376 10.3327
1 4.34274 6.32176 27.6909
1 19.3754 23.188 16.6811
1 24.1722 17.7562 29.2197
1 0.690308 30.2353 24.9262
1 20.205 4.83037 19.9638
1 17.9062 21.9556 1.10044
1 29.0211 19.5398 8.57894
1 9.18755 25.1156 15.4332
1 10.5241 16.2952 15.9977
1 9.2859 6.35465 16.4672
1 27.5788 10.1311 14.5779
1 10.0519 25.8508 22.6905
1 21.7473 5.63522 5.79401
1 14.4474 20.0017 20.62
1 27.8484 14.672 12.3725
1 4.13175 11.6806 30.2506
1 5.26924 10.7234 7.0338
1 26.7111 23.2094 6.63112
1 0.979147 20.3268 9.60458
1 6.17768 16.3091 2.46063
1 0.320887 8.42389 12.2914
1 4.03983 2.74161 14.7148
1 8.39362 0.751502 15.8669
1 19.9388 27.2575 18.0926
1 29.1745 0.900847 23.0597
1 4.51465 1.26022 20.7087
1 16.2785 24.815 13.532
1 17.0047 27.2374 24.1332
1 24.1739 6.55531 4.40856
1 28.1407 29.2859 26.2371
1 10.5494 5.10774 13.2118
1 25.2767 28.7212 12.4553
1 18.6553 29.9677 12.7073
1 27.8429 4.21483 6.65136
1 13.6327 23.3036 27.3729
1 11.4562 5.42824 4.08701
1 14.7245 28.9704 22.6729
1 10.4985 0.272907 16.9365
1 19.7061 9.76014 3.91464
1 21.9504 22.9403 10.7017
1 6.01578 21.113 27.1042
1 28.8381 22.2714 24.5089
1 23.6122 13.8456 11.6019
1 24.6547 10.8169 1.44266
1 26.2726 26.6621 20.1451
1 4.27896 17.5052 14.8649
1 9.20761 19.7451 8.26551
1 4.63749 23.3311 22.2011
1 19.6142 14.4785 9.10852
1 20.864 21.6491 7.09956
1 26.976 19.0164 26.192
1 13.0606 9.82225 3.86296
1 23.2744 15.1863 11.5756
1 2.96948 26.5067 7.26604
1 30.3808 23.6788 19.6561
1 23.5443 3.19294 9.81771
1 27.5742 22.7215 5.48298
1 11.8285 25.0572 24.8073
1 22.2951 18.9226 16.5313
1 29.5318 16.9183 2.73219
1 18.7654 19.3007 24.6974
1 16.7263 11.0685 23.5834
1 25.0327 19.0733 3.41611
1 13.3042 25.1048 7.43177
1 6.07382 2.9986 16.4283
1 6.46842 19.2499 26.1972
1 11.4929 24.3219 9.94755
1 27.7453 8.42035 9.6701
1 28.2101 5.05829 16.151
1 2.29711 10.2361 4.66642
1 12.811 16.4228 23.7126
1 9.53853 12.9032 10.4174
1 12.8064 12.756 20.1155
1 11.9682 8.45821 20.2447
1 23.0605 14.9417 1.60376
1 18.4398 9.29458 7.27982
1 5.92009 1.41799 4.26879
1 13.8261 4.27733 18.3467
1 5.48743 2.14235 8.35514
1 26.3528 9.62271 18.2968
1 18.3153 16.3351 0.477509
1 25.5008 3.72562 17.1864
1 2.93876 30.2369 24.1142
1 6.48843 16.021 25.4879
1 2.55097 28.2683 15.8074
1 25.8129 15.1719 25.4209
1 29.8641 8.82485 20.7008
1 7.95545 8.21008 6.84257
1 10.326 3.24106 3.79368
1 21.1697 4.86473 29.121
1 20.9246 8.15514 22.3058
1 24.3939 17.9305 5.61042
1 22.6203 26.8923 26.201
1 14.5423 9.29862 8.45944
1 24.6673 22.9653 9.45068
1 28.2635 26.6798 13.0427
1 22.1579 13.2783 12.1279
1 29.7531 20.4063 3.58074
1 29.4252 2.46087 5.88348
1 3.43361 6.08548 3.16945
1 27.3163 13.6015 4.31201
1 7.27 27.6229 8.7346
1 18.6344 13.8381 15.3759
1 0.975279 23.3602 1.42719
1 26.5153 11.6476 2.88281
1 2.59668 8.17025 19.3476
1 29.0089 13.9918 3.55207