4096
Atoms. Timestep: 360
1 28.0694 27.9419 30.174
1 17.1356 10.4611 24.1884
1 13.1792 7.96822 25.7365
1 4.64754 6.1712 24.4576
1 17.3742 4.95739 8.51349
1 9.53706 4.69499 0.73782
1 6.44537 11.9709 3.88762
1 11.1424 22.1365 28.494
1 14.63 10.1332 22.588
1 10.8715 25.2826 10.227
1 2.18622 27.1958 10.0201
1 3.54451 8.52859 11.4127
1 2.45162 7.96805 21.642
1 3.53489 2.02939 6.14129
1 19.1662 8.44289 30.0346
1 26.356 12.1881 8.65451
1 24.1096 0.653317 15.7305
1 28.7175 17.2741 9.86072
1 24.5164 8.8755 7.91049
1 11.4455 3.31683 15.8372
1 6.51025 21.2619 23.9096
1 27.5995 1.76713 18.8905
1 3.19695 2.29288 10.9801
1 22.3308 7.75257 9.17986
1 4.14367 19.8414 15.3081
1 8.36857 3.61195 5.49701
1 18.1117 9.51134 24.8681
1 10.2989 19.1409 9.48952
1 4.93221 25.3629 1.75138
1 28.8651 5.43791 10.3379
1 13.1885 17.2161 2.08819
1 20.3951 14.5109 20.4576
1 7.71233 7.0291 8.10974
1 8.74548 0.593053 20.2146
1 19.1361 15.3587 6.98571
1 7.57951 4.54628 3.36825
1 23.81 9.24914 11.5794
1 7.23376 27.3259 30.1652
1 17.0151 12.3162 27.3784
1 23.3636 15.878 18.3685
1 2.8927 22.3309 7.94281
1 25.6175 13.8199 25.2625
1 3.06783 14.3843 6.31117
1 23.8754 15.0253 11.6789
1 5.95796 1.48233 2.1207
1 30.1751 19.0596 18.4403
1 16.1762 24.3611 9.91941
1 8.85978 23.9514 14.488
1 14.9458 1.90253 15.1422
1 4.00276 12.5826 29.3849
1 14.1658 26.4398 0.563178
1 9.96065 5.80682 28.8875
1 23.5009 15.5226 22.8221
1 7.28196 29.1226 8.65751
1 15.0847 11.3892 8.32077
1 23.111 0.251719 14.9678
1 4.48964 12.9496 22.9991
1 21.7749 11.6841 27.1115
1 27.5685 27.8994 5.68513
1 12.562 27.9047 24.1789
1 8.12982 12.9968 2.32183
1 30.0236 4.73171 6.6196
1 4.11158 23.5658 28.3486
1 8.22015 13.9669 12.9675
1 17.6012 21.2813 23.0899
1 6.47694 1.0037 19.1072
1 2.53398 25.0538 17.5736
1 12.3792 0.357868 30.2671
1 17.0281 2.02527 13.1813
1 11.9682 3.71491 6.52176
1 9.78528 6.17392 7.28766
1 1.13728 19.8532 16.4841
1 17.1336 2.78242 16.9338
1 6.64227 28.2278 17.6928
1 28.3574 10.8306 3.51376
1 4.18922 30.331 29.4503
1 12.3047 6.53286 7.35778
1 16.8999 10.631 17.2238
1 8.75432 16.7048 4.46166
1 10.5005 28.355 13.7575
1 10.9402 18.6741 24.0025
1 28.4723 17.067 22.7277
1 22.3893 22.1885 20.3918
1 22.0141 13.1691 5.02104
1 12.7271 6.71038 20.9324
1 25.1323 22.5998 24.8188
1 18.3764 30.2898 20.3703
1 17.3486 29.718 25.2634
1 8.7832 2.22974 23.6637
1 1.12295 7.61343 4.05443
1 28.9744 5.55721 5.79443
1 20.8384 26.1039 9.0217
1 22.6999 25.681 12.5524
1 14.7027 12.9874 10.5081
1 10.9917 28.3732 7.01343
1 18.3276 5.15434 9.56122
1 19.8349 13.5565 11.3327
1 27.7033 9.15427 20.7123
1 29.6035 20.7114 2.92674
1 27.8836 18.7452 4.95205
1 26.3255 27.1453 15.0464
1 25.7038 0.622887 24.8656
1 9.97929 11.9289 3.63801
1 7.67415 12.4146 12.458
1 1.82391 26.5655 25.3732
1 14.1583 23.8926 18.1933
1 4.54553 15.7566 21.3144
1 0.935098 23.4233 22.6452
1 11.299 16.6101 6.62498
1 29.8838 22.2394 29.5052
1 19.7086 25.9556 28.8677
1 9.92492 20.4936 7.17826
1 28.6054 3.29302 9.35006
1 8.37728 4.78172 15.4412
1 3.88556 21.6806 26.2476
1 16.4663 10.3701 13.617
1 13.2286 13.3138 3.0396
1 7.13668 0.65698 2.60952
1 15.6216 10.6864 14.7744
1 6 5.16488 30.1429
1 27.2619 23.0419 17.7473
1 15.0942 7.98045 7.22247
1 20.713 26.1446 3.63097
1 24.4835 13.723 24.2706
1 4.2626 10.4383 1.18964
1 28.5525 21.2806 5.79114
1 23.585 22.0274 1.77792
1 1.85175 12.695 17.7935
1 4.17517 20.1503 0.629388
1 18.1505 15.1516 28.1092
1 25.7091 5.78362 27.9518
1 8.68968 27.9449 16.5605
1 0.867716 28.3891 18.7638
1 6.76885 28.3153 23.711
1 9.58576 26.0366 20.3639
1 4.1012 26.3758 22.654
1 7.81055 5.22665 6.87919
1 6.16561 19.4683 6.84627
1 0.614782 20.5688 6.20869
1 4.16325 18.8058 14.1051
1 10.7041 8.0447 3.49765
1 15.0373 26.5398 1.77508
1 7.59311 23.0962 4.82705
1 19.0674 4.7485 6.11981
1 29.3858 6.63509 10.6986
1 20.5227 14.6167 26.8156
1 24.4042 17.995 26.4356
1 7.53917 0.280685 10.8663
1 16.6244 3.34903 4.4243
1 15.3078 2.65359 9.87804
1 23.4183 28.4729 1.03649
1 17.4093 27.1021 22.1753
1 14.3307 3.27413 3.08849
1 19.5279 16.8961 9.82322
1 18.3382 16.647 16.7027
1 28.802 14.2977 12.7553
1 26.9019 24.225 24.0898
1 2.06641 12.8869 24.1993
1 7.7747 13.9278 21.9658
1 21.4276 19.5443 15.3328
1 0.957116 20.578 14.242
1 29.1846 18.7667 10.5194
1 27.3566 1.92857 11.533
1 27.0863 8.39589 28.0817
1 3.97752 7.2689 23.5335
1 28.6079 29.472 1.50613
1 11.1436 22.8299 20.3849
1 26.2141 25.3205 11.7601
1 13.5538 5.94317 7.95114
1 27.9354 13.5555 0.217702
1 1.36229 4.98056 14.4165
1 13.4272 21.342 18.886
1 8.17249 30.0358 15.3064
1 5.91734 20.5774 4.76304
1 8.36568 8.4969 9.51452
1 18.034 30.0871 9.42711
1 25.8945 9.79151 23.5374
1 5.80729 17.7803 12.5295
1 27.1292 21.733 23.8898
1 10.1989 25.9756 22.64
1 11.6176 27.3939 13.6023
1 15.4673 22.2207 4.24256
1 28.8592 11.9163 28.2588
1 19.8748 23.1534 5.94395
1 2.28421 18.0409 3.51842
1 11.7122 2.63854 2.53974
1 0.901561 3.40038 22.6969
1 5.61725 20.1923 18.8793
1 29.7308 12.1231 10.4075
1 2.12995 3.0688 11.7878
1 7.19982 1.757 21.3234
1 12.7506 26.136 3.03152
1 6.40065 12.4304 14.4502
1 23.8518 27.8782 10.1039
1 9.14014 24.3826 9.19491
1 28.5787 4.93854 22.7524
1 27.1002 13.2369 13.1372
1 29.273 15.3904 15.1097
1 15.5737 0.329318 8.52759
1 11.0774 9.26193 10.7971
1 20.1812 17.6391 1.17602
1 13.5854 23.1876 20.2313
1 22.361 10.4532 2.32372
1 5.91853 7.77761 9.86851
1 27.3851 1.90054 26.7751
1 26.2696 8.77171 11.1427
1 4.28531 7.20943 17.4712
1 27.4077 19.5983 25.3934
1 27.725 7.04437 4.66336
1 8.66802 18.0257 10.0496
1 16.3072 16.9768 24.3707
1 7.06128 21.1353 0.606589
1 2.5688 0.480502 12.4828
1 19.4633 5.76774 12.4894
1 20.8582 28.8377 1.57651
1 25.4736 8.13761 2.27524
1 15.3091 13.3973 4.53002
1 24.5295 7.2932 17.828
1 21.012 19.7879 16.4204
1 5.84074 21.8642 8.25694
1 14.6545 20.6725 29.3244
1 8.03059 19.0073 5.57239
1 1.06874 16.0883 22.9788
1 5.10183 15.1973 26.9841
1 15.7881 5.26431 24.0079
1 13.8804 30.2185 6.13156
1 20.3615 29.1431 20.9809
1 14.2318 7.80206 9.30419
1 16.6998 7.978 30.1973
1 0.771044 22.3951 27.5168
1 8.00663 3.99985 14.2786
1 10.5423 2.50187 15.2027
1 23.8534 21.4791 6.26131
1 17.9577 9.47904 28.119
1 10.2446 28.4777 29.5728
1 9.87819 12.692 21.7569
1 7.40527 4.56123 1.8727
1 6.77338 10.1052 9.64736
1 13.414 19.9576 21.4639
1 26.8553 14.953 18.6321
1 11.3798 0.173855 29.0666
1 25.4752 5.96941 29.3992
1 7.40875 17.1152 15.3737
1 19.1225 24.6922 7.79252
1 9.35956 0.207395 8.10949
1 12.8295 15.2422 25.1259
1 20.5853 18.251 23.2379
1 15.888 3.33402 10.8307
1 22.1622 28.8986 13.8155
1 9.07018 2.04673 18.0729
1 14.0339 14.7054 24.5398
1 18.5739 21.3645 11.3808
1 25.6185 1.22832 20.7232
1 24.4815 13.3582 5.07938
1 24.3276 3.85881 27.8603
1 8.36554 2.48934 1.9514
1 27.1759 5.32506 20.4507
1 29.3752 20.4358 8.65305
1 24.6251 5.24155 14.644
1 20.3366 9.70541 6.888
1 5.14922 15.8533 6.10364
1 29.6337 6.47142 20.9841
1 6.50974 23.7405 7.66419
1 29.5976 6.99897 12.0115
1 28.4771 12.274 22.1957
1 0.33131 26.2883 0.887882
1 29.2124 26.5292 29.1803
1 9.58239 27.8447 3.39514
1 16.9618 2.07676 24.3335
1 17.7895 25.1407 14.5344
1 3.32059 11.728 8.36146
1 9.17091 20.7435 27.6235
1 3.96758 16.3116 28.5703
1 27.968 7.20188 12.672
1 8.22293 0.994087 1.70284
1 0.309441 7.94328 12.405
1 7.94912 14.8429 0.795517
1 10.7636 8.00491 27.5599
1 0.47617 14.8343 20.3138
1 4.46619 2.38125 29.5643
1 4.76982 3.4926 19.0555
1 6.72547 26.3174 6.61156
1 23.928 12.2515 12.028
1 9.26728 28.4606 2.16812
1 18.018 13.2858 2.98468
1 15.0788 21.195 28.1664
1 25.8493 5.97207 1.85082
1 27.5658 9.96227 24.9882
1 3.79315 25.4577 17.2227
1 14.3646 10.4615 3.86165
1 24.4546 23.6998 7.19338
1 22.6419 28.1074 21.6337
1 6.97368 1.12367 8.97021
1 24.1812 26.0931 6.79245
1 7.30262 12.095 19.229
1 27.6724 15.5145 24.8615
1 1.81295 15.3799 20.4551
1 21.0685 8.48383 16.134
1 11.308 11.3076 13.5453
1 30.0984 21.2347 17.4081
1 23.302 3.41142 17.9099
1 4.68718 27.3675 27.155
1 25.7959 4.88711 23.9474
1 12.5374 27.3046 27.5871
1 29.2695 20.5033 19.7136
1 11.9494 25.0579 26.9659
1 29.5692 25.5984 10.0825
1 5.23738 20.7625 14.7593
1 18.9039 1.34029 29.7413
1 9.5445 12.6174 6.6833
1 26.1319 13.9127 21.0752
1 10.811 1.73935 14.1038
1 3.02798 13.2581 15.6428
1 29.1863 16.9619 21.099
1 0.3322 10.9176 16.654
1 11.0933 5.45776 14.1758
1 3.91889 3.66584 24.8969
1 5.72927 9.6068 26.1527
1 7.36484 13.6015 19.3021
1 21.1036 25.2327 24.4837
1 16.879 24.148 7.5787
1 21.9919 13.4734 28.7103
1 16.8418 22.5823 29.8487
1 1.76626 20.0614 15.3044
1 30.4208 10.065 10.9857
1 9.15512 7.05827 28.5347
1 1.4844 24.1697 7.34625
1 8.02553 29.4676 6.20047
1 0.807715 27.8688 4.29946
1 8.21127 15.9867 3.49098
1 13.3764 1.15796 15.0624
1 17.5538 3.34837 6.69319
1 14.0646 10.7522 27.7602
1 22.721 0.810087 23.69
1 18.4497 3.81455 3.32651
1 6.29669 24.3685 13.2962
1 0.322549 5.85401 14.1182
1 9.03389 26.6228 14.0563
1 15.706 29.7681 0.276848
1 11.754 30.2458 23.3257
1 7.19061 9.41844 6.8167
1 10.8847 21.5203 7.51352
1 10.2766 16.4287 29.3201
1 26.6791 29.7903 15.6698
1 10.6897 27.8069 25.8464
1 1.34752 23.6243 14.0707
1 29.8536 10.1268 1.4887
1 24.3556 10.0387 23.511
1 23.1504 5.64762 22.2938
1 9.06435 27.299 6.5754
1 1.63783 12.3123 27.1937
1 29.9329 7.00158 23.9239
1 18.7535 5.14154 30.1791
1 18.8763 23.1186 17.9421
1 18.7195 20.4305 3.90924
1 8.6723 23.5294 6.6796
1 19.7011 27.2389 4.16299
1 13.8258 13.3757 4.60428
1 28.0575 13.8868 9.23137
1 8.09331 21.872 8.26421
1 29.9308 16.7319 10.5614
1 6.19473 20.7639 6.21362
1 12.5906 0.936173 12.451
1 8.26942 29.6676 7.59797
1 1.36537 10.9864 21.5728
1 18.9384 26.438 11.766
1 14.0952 9.33931 19.0359
1 27.5728 1.47555 13.0097
1 7.43129 28.517 0.465422
1 7.78779 19.8386 29.1155
1 24.0696 8.40344 28.1092
1 25.8263 30.1959 12.2523
1 11.237 29.1521 12.0001
1 24.2498 14.6101 4.09295
1 11.3968 24.0528 4.64813
1 26.413 5.354 13.1601
1 8.85777 6.74588 1.88656
1 21.9751 17.912 27.1973
1 16.8015 12.5796 6.44314
1 23.3357 2.65313 9.62124
1 14.4906 1.5122 17.9273
1 29.0341 3.11552 15.9236
1 3.05556 5.35049 9.30937
1 27.1461 16.8159 20.886
1 7.6395 4.07622 25.2407
1 4.08682 5.27746 5.53254
1 12.0631 4.93148 2.68211
1 25.0985 29.6551 8.63989
1 5.40475 24.2086 26.5502
1 11.8721 27.2575 4.89985
1 17.931 27.7409 18.6663
1 12.0888 22.7187 14.5134
1 27.4941 13.6386 14.4331
1 28.1149 14.0464 4.50363
1 8.0175 27.0986 27.079
1 0.811988 9.00191 27.0282
1 28.717 2.45754 21.831
1 18.0826 23.7968 14.2342
1 17.8652 15.7907 7.3098
1 25.553 16.1631 7.81419
1 19.303 15.6713 22.5493
1 6.55173 2.16676 20.0727
1 14.9881 28.2068 12.6278
1 1.85472 22.6677 3.09366
1 7.57087 10.2053 20.8702
1 17.3651 29.3653 3.54676
1 13.7804 20.9799 9.23585
1 21.4846 4.70387 4.92767
1 1.39899 28.3808 10.7283
1 30.1206 16.9387 2.99468
1 14.1843 25.5715 14.161
1 13.4437 6.6532 1.31014
1 15.474 20.0019 10.8752
1 8.61656 29.4742 16.545
1 23.3908 17.6728 6.18068
1 26.014 20.8799 10.9216
1 0.512391 25.709 10.6645
1 17.4977 5.67465 7.40588
1 14.1401 3.64133 16.7963
1 23.9866 6.72474 21.7948
1 8.54233 11.4564 6.41826
1 14.1783 3.63466 13.5374
1 8.87211 6.19458 5.02831
1 16.6044 13.4262 8.51437
1 28.7732 10.2323 22.3695
1 7.57508 5.50359 19.1028
1 3.06342 3.7405 17.0229
1 0.728985 23.6628 24.9883
1 7.96174 0.681556 30.3275
1 20.443 0.41474 13.596
1 19.9904 16.589 5.08112
1 16.9227 3.97209 5.58558
1 28.4589 25.3934 5.31647
1 18.136 8.41303 19.0333
1 22.8771 17.6721 26.2288
1 1.41025 20.1909 12.8018
1 26.9082 19.8551 2.99187
1 20.5362 12.3775 26.3773
1 3.44684 8.72668 4.48398
1 21.7738 4.04935 1.52843
1 21.8545 24.005 2.11981
1 10.8216 6.93414 25.3264
1 9.43106 6.21126 12.0588
1 2.89964 17.2697 24.1099
1 3.32099 20.9808 18.218
1 0.285265 11.236 1.1553
1 16.3249 23.085 17.5511
1 23.5354 7.30443 20.4034
1 28.0328 8.20327 13.8494
1 12.4164 14.1457 0.577564
1 1.77009 13.5459 6.34072
1 8.77985 9.97085 11.6017
1 18.6132 13.7587 16.2773
1 16.0666 7.55069 19.3097
1 7.71249 26.7893 14.6128
1 10.7578 18.1826 25.322
1 18.6948 8.46948 20.374
1 29.1718 30.3953 27.2536
1 25.7758 9.72404 7.24718
1 26.7785 8.541 2.64692
1 4.01109 12.7076 14.8406
1 29.0861 20.7724 12.4465
1 8.82881 24.23 12.7941
1 29.2016 6.8944 28.4557
1 30.2076 26.3971 22.6636
1 12.3705 13.543 10.6061
1 2.97618 5.2175 16.9954
1 5.93399 5.38878 11.3136
1 21.6697 15.3568 12.2557
1 17.792 18.8657 10.9371
1 2.27355 17.4556 4.8878
1 6.85017 8.6482 26.5058
1 3.99591 27.9489 18.0466
1 18.7084 1.70548 24.239
1 12.2328 11.9178 21.7283
1 4.49064 26.108 15.0341
1 25.57 11.1075 29.09
1 18.7519 11.8003 9.76381
1 14.883 3.2465 15.8773
1 9.46927 0.758192 2.34461
1 25.7056 22.9616 22.3915
1 29.2933 8.29623 26.4805
1 29.6883 5.92574 4.51577
1 14.4908 25.1385 6.64867
1 29.7244 9.22944 4.20153
1 6.11626 1.63756 6.16966
1 18.1007 14.7514 18.4195
1 22.4225 4.18914 29.59
1 3.5684 22.0379 30.0435
1 9.56059 22.8786 18.5217
1 27.0541 5.76502 27.975
1 23.6824 9.93289 1.76476
1 20.7316 7.17182 14.0347
1 5.64818 22.7758 21.9819
1 0.182846 26.6159 20.3159
1 7.4679 5.38853 4.47691
1 3.31986 21.1032 14.9233
1 9.04904 11.4738 12.1022
1 16.0532 5.89286 25.9467
1 3.3014 22.3876 28.6458
1 2.17458 26.01 6.89489
1 28.2628 9.23312 28.927
1 18.2148 28.0489 29.9599
1 5.0284 24.1877 0.623012
1 0.888467 17.1121 2.10564
1 11.9315 7.98621 5.55269
1 23.4293 13.5924 25.3048
1 3.06092 12.2895 22.9386
1 23.0732 24.0333 19.1134
1 1.78217 0.402536 20.1169
1 21.6345 29.3059 27.9251
1 28.0554 29.4208 5.95484
1 20.1702 9.02634 8.37943
1 23.4721 18.0436 3.68695
1 27.8193 11.5967 1.26527
1 7.36183 3.34942 30.1871
1 9.74764 19.7493 10.5509
1 6.67142 17.173 6.52659
1 15.0974 26.2703 26.8316
1 19.7077 27.8588 15.8928
1 2.79679 9.11246 20.7135
1 18.6566 24.1879 25.208
1 28.7021 10.8407 13.0288
1 22.1328 7.8839 4.83775
1 19.6907 19.0246 13.124
1 3.4341 22.6876 9.14512
1 8.90056 12.8813 3.62628
1 30.3959 28.9051 10.4493
1 14.3464 1.56242 10.5196
1 4.15064 21.0366 23.243
1 12.5215 0.658355 19.1713
1 26.092 28.6461 19.9131
1 19.8266 9.22762 22.4188
1 19.0667 19.7511 9.03357
1 11.0674 12.2263 6.84917
1 1.49229 1.18044 21.154
1 7.80736 5.89447 22.6348
1 29.2721 0.618165 18.6069
1 7.5551 16.2056 11.4295
1 28.9531 25.3369 13.6638
1 14.7293 21.1132 26.8767
1 25.3753 6.75554 25.6215
1 1.10258 14.0985 27.159
1 25.8945 21.9806 16.3239
1 9.3712 10.179 22.839
1 21.2043 23.9352 11.6065
1 0.966356 22.3468 8.8735
1 9.20818 12.2654 16.7502
1 24.9497 16.8745 19.8
1 2.86442 9.5327 24.4613
1 29.0998 20.499 16.4148
1 9.81357 11.5864 17.8678
1 18.1339 1.80334 0.973053
1 6.63686 22.6871 2.41876
1 10.4794 9.25663 29.7494
1 1.0455 7.00452 16.9963
1 30.3152 28.794 15.455
1 13.1002 17.8163 22.0431
1 28.1916 1.95659 15.0864
1 30.271 17.9425 29.0291
1 7.37032 3.33074 1.23348
1 10.4867 5.37526 27.775
1 13.8663 17.6048 25.8067
1 12.0479 0.905865 10.4042
1 19.6269 1.71783 23.2617
1 24.8503 6.32586 26.9625
1 18.1001 15.3586 11.8025
1 18.0846 16.3118 27.5929
1 16.4997 25.5838 26.6998
1 14.0173 5.28332 28.533
1 4.74998 27.0977 11.0593
1 7.68396 4.67495 20.353
1 18.9427 25.9731 14.7994
1 24.1425 11.3632 23.4894
1 27.3464 19.0464 20.6973
1 1.98091 13.9781 11.7957
1 19.7287 12.1319 4.50314
1 3.76113 6.26739 6.29686
1 23.0698 27.1425 17.1471
1 7.69113 21.114 27.3949
1 8.63585 16.8405 27.2925
1 12.1019 11.9957 23.3255
1 19.5694 24.8425 1.95033
1 3.90333 25.1528 2.64252
1 7.07436 14.64 29.8124
1 24.47 10.0229 19.2544
1 21.0803 30.3525 29.9371
1 24.8076 11.5751 16.9998
1 5.82894 21.2685 15.9959
1 27.1322 1.46041 20.2981
1 2.64813 20.5998 19.5488
1 5.81227 17.9392 19.1583
1 3.97371 15.8677 12.5291
1 24.7019 10.518 2.92486
1 23.4675 30.0504 3.7701
1 17.8656 29.2991 30.275
1 8.99565 14.7043 22.7935
1 27.7069 11.7382 15.2267
1 9.60378 10.2328 19.2533
1 17.4111 30.0866 19.5407
1 6.21044 4.65062 22.4663
1 11.3745 27.5068 16.8563
1 28.9881 7.17898 14.7159
1 1.73367 14.1122 1.8664
1 25.8148 22.0325 9.92498
1 6.94977 29.5416 2.79914
1 26.9761 2.51634 24.0937
1 2.17446 25.8133 14.6426
1 23.8031 21.7076 29.4652
1 28.861 1.60133 1.58888
1 17.4657 25.2058 5.6397
1 10.379 12.1528 24.1912
1 27.4131 14.354 21.5918
1 5.17637 29.2727 24.8806
1 23.533 7.10429 27.8408
1 26.9643 27.9735 29.2471
1 14.1839 8.80509 25.0373
1 23.7714 23.3586 3.29251
1 30.3407 11.7605 23.7728
1 4.45102 0.970525 0.167363
1 18.0357 7.68481 16.2231
1 5.54235 9.38747 3.3831
1 4.0066 19.9279 24.1971
1 2.42918 25.6864 27.8261
1 5.61743 23.1325 28.0717
1 27.7039 0.688852 10.6582
1 26.2301 17.0257 29.3361
1 18.5311 22.9039 22.5609
1 25.6015 15.0367 26.0916
1 20.2505 9.96116 10.6737
1 22.9625 11.4316 24.2438
1 23.7218 12.3132 21.5403
1 16.1099 17.4856 17.0628
1 8.88096 29.7743 26.9612
1 2.33682 18.7161 6.07501
1 17.2066 10.2668 2.71483
1 26.9726 28.3975 15.5728
1 13.5884 12.3798 18.2756
1 12.7035 16.7187 13.7008
1 19.7372 3.9685 22.6004
1 3.7403 10.141 4.49138
1 5.77566 6.31369 14.2923
1 11.8784 17.7289 21.1882
1 12.5881 19.9975 3.36599
1 10.4554 12.4883 18.4541
1 5.72418 10.6783 22.4533
1 7.19817 2.79688 26.1694
1 3.62871 17.114 16.0272
1 8.60476 15.1177 6.50317
1 17.134 25.6795 4.34349
1 2.02681 10.2372 23.6669
1 7.74229 26.0134 4.22822
1 1.54272 3.74758 7.97437
1 1.49351 14.4595 14.2153
1 8.63117 2.53283 10.0649
1 13.2683 12.8255 20.7514
1 26.7497 26.5881 26.3008
1 12.8835 6.72584 15.0236
1 24.3396 13.6511 18.2258
1 2.844 2.69437 24.1397
1 24.8021 3.89434 21.0045
1 19.6465 21.9968 26.0264
1 9.66091 16.1536 12.7111
1 7.37434 27.0727 1.9723
1 12.0801 9.6894 20.9456
1 17.4677 0.184586 26.4802
1 0.883974 1.15735 22.4338
1 4.79847 19.3866 11.2121
1 0.949314 0.349107 28.6924
1 24.6214 17.8659 29.7664
1 17.8748 19.6482 21.442
1 3.58011 16.7994 4.88385
1 18.7267 1.40802 25.7157
1 1.87654 6.22726 7.48793
1 0.510981 4.42644 23.4805
1 23.4662 20.2007 14.1267
1 1.23353 2.02638 6.35249
1 2.04225 20.3947 27.351
1 26.5007 29.272 21.0877
1 19.6864 16.5951 13.2373
1 14.8253 23.0601 12.8121
1 13.2582 5.20432 8.98496
1 9.55934 1.64936 6.09449
1 2.49956 11.0803 22.4249
1 23.7441 27.5292 21.1901
1 16.3401 13.5818 13.5945
1 12.3709 28.8122 7.15472
1 19.9791 13.6463 17.3032
1 28.4374 0.54509 0.873741
1 27.1142 3.70232 7.88005
1 24.206 22.6636 0.649038
1 10.9754 24.6313 0.871624
1 30.2302 19.2173 13.8448
1 24.2777 23.6529 25.3819
1 9.19683 10.8314 25.9197
1 10.9103 16.0283 5.46294
1 28.6283 6.96448 1.81949
1 7.01179 3.49397 12.6261
1 19.4484 24.9476 0.616726
1 1.18471 28.5729 1.15173
1 24.8802 5.27389 8.00752
1 30.1294 1.15205 29.0257
1 19.2015 28.757 16.8494
1 6.03355 26.6769 30.2278
1 20.3203 2.59479 11.0624
1 1.41643 24.3298 17.1147
1 25.1361 22.7827 12.3242
1 3.49534 18.9617 0.94469
1 25.3721 30.1681 15.4066
1 23.6911 8.17043 16.9697
1 7.52061 23.7952 23.4828
1 29.5785 19.973 10.0169
1 11.0984 21.3071 20.5965
1 25.6418 8.38302 13.714
1 22.6066 10.6555 15.7009
1 26.7818 20.4955 11.9452
1 25.7848 3.22474 24.2724
1 14.098 13.5449 9.32439
1 2.10159 2.87987 2.71722
1 19.6583 28.9406 2.38214
1 25.8661 12.2686 9.93655
1 12.9999 22.5803 29.6295
1 10.973 17.7842 17.3203
1 28.8825 14.9626 30.4137
1 23.4453 9.2961 27.2961
1 12.6195 1.97395 22.8159
1 11.3008 26.717 27.0198
1 5.72571 29.4439 14.7484
1 16.8959 29.1205 15.5635
1 12.5593 27.8958 30.0368
1 15.6201 7.71561 23.2232
1 12.5781 17.7428 15.6627
1 26.6499 3.50889 28.3223
1 11.5241 10.8039 7.02003
1 2.77165 26.9168 1.82687
1 23.3187 29.5073 14.3691
1 27.4903 10.1332 9.1457
1 26.7501 7.46054 11.783
1 4.10014 2.19635 15.6638
1 18.2382 27.6293 26.2146
1 24.9789 13.4608 11.8817
1 17.7848 11.4975 8.81143
1 18.9401 5.33752 20.4655
1 3.04389 13.5244 3.97433
1 2.80515 28.3808 28.7568
1 11.6366 12.2097 12.5477
1 21.2265 12.4771 2.60462
1 13.3485 16.0684 22.7509
1 20.9576 22.3967 17.012
1 14.3061 29.4932 2.53136
1 24.3875 2.23936 26.3365
1 9.53123 6.93587 16.1562
1 14.519 9.64304 28.0452
1 25.7549 22.037 28.3717
1 4.59006 14.7228 12.8188
1 18.9462 24.693 28.7543
1 28.7062 19.0585 20.2613
1 5.89317 18.0346 1.44303
1 20.4862 5.69634 9.34149
1 10.851 15.7635 3.13026
1 30.4087 27.6323 0.66746
1 11.0549 15.0502 21.0031
1 22.2879 6.06556 15.6783
1 23.2428 7.93927 13.3741
1 9.70637 8.40063 15.9416
1 9.62843 14.5313 0.708721
1 9.3926 11.5392 0.601473
1 22.0606 19.5332 17.6357
1 11.7999 17.7334 14.3405
1 2.64924 8.04413 24.541
1 5.24953 3.59472 7.6128
1 3.37345 16.4792 8.27966
1 10.3386 18.0233 21.6373
1 26.4759 22.5949 12.8239
1 28.9157 25.2751 24.5008
1 12.9388 0.478734 25.8525
1 3.6676 9.87247 21.8963
1 10.3247 13.7291 14.1596
1 1.47771 25.9647 20.0191
1 8.65106 22.7375 16.5225
1 11.2323 3.80741 23.6653
1 15.2635 0.211988 26.9068
1 15.9009 12.4654 28.1284
1 7.66354 4.64948 12.8999
1 30.3036 13.7615 28.2293
1 9.21029 16.7032 1.15776
1 5.02972 9.19481 14.7577
1 2.43329 19.0643 12.514
1 21.1336 0.933505 18.8474
1 19.1662 7.53328 10.2391
1 16.9474 30.078 12.3519
1 17.4545 7.22323 13.7511
1 13.3583 9.38449 20.488
1 12.0693 4.35348 30.0318
1 14.6717 30.0281 22.1767
1 24.365 1.77105 16.8709
1 7.27017 23.9875 17.9893
1 23.3357 6.35203 1.60877
1 26.9547 10.9706 28.9655
1 12.1237 24.9584 10.5551
1 25.8956 23.5649 28.3674
1 11.4133 6.87034 21.0783
1 9.72848 21.0694 14.1948
1 5.80369 10.6626 7.48218
1 23.6064 2.67316 27.4083
1 16.597 17.1795 13.9876
1 24.0064 19.3024 10.8395
1 29.3184 1.00407 15.1244
1 7.55092 11.9242 15.1256
1 12.5154 25.8694 16.7473
1 7.623 23.3926 28.3936
1 1.99293 23.2582 20.2602
1 11.5339 19.2458 13.2094
1 29.7158 11.92 13.1033
1 2.67312 4.23141 5.61886
1 20.3146 2.0801 19.5204
1 0.388765 6.80427 5.18381
1 20.2888 5.96797 7.89986
1 29.5642 11.5938 20.1402
1 17.1548 7.88491 23.8536
1 26.3268 2.65123 10.7572
1 26.8173 29.9178 26.6688
1 8.7154 27.8759 12.0952
1 22.0698 26.3509 9.39368
1 15.2417 2.61248 20.1776
1 26.5422 3.8083 0.66284
1 0.365193 19.3106 23.3545
1 15.9601 5.36093 12.1006
1 22.0958 2.058 16.1631
1 28.4618 6.97235 5.98306
1 8.58427 14.2577 15.3729
1 0.305861 3.80343 21.1662
1 27.2594 24.7896 26.5478
1 18.5169 9.77966 18.7256
1 5.56092 11.8973 23.1589
1 24.9231 29.6078 19.3748
1 2.72171 18.1674 27.557
1 28.3039 15.71 16.0519
1 20.9368 8.96324 19.412
1 3.21016 29.9566 26.0627
1 17.0186 7.60622 18.464
1 19.0426 2.75144 14.3992
1 15.5675 2.80818 0.724652
1 11.4342 13.7081 1.46183
1 21.6467 28.1884 20.7413
1 26.8015 8.00406 14.8548
1 29.2387 13.0121 27.3626
1 23.3202 7.00077 8.59154
1 9.58748 6.19774 10.5767
1 5.18876 23.1562 2.9191
1 6.61608 1.93697 14.4176
1 9.48509 5.13783 18.3783
1 19.6417 5.23495 16.7352
1 24.276 20.9266 19.9937
1 12.1875 19.1237 27.5207
1 30.0701 12.7065 22.7905
1 20.383 8.30324 10.7577
1 21.0913 24.0495 23.763
1 2.32512 4.7369 11.6276
1 22.031 1.07968 15.2226
1 26.1138 8.45453 23.1118
1 12.5519 21.7788 10.0342
1 17.8925 27.7997 27.4309
1 5.53736 9.33548 23.5626
1 10.8531 2.03541 20.6111
1 9.88128 5.66637 4.04528
1 28.1794 28.5668 16.0403
1 27.7228 14.5244 24.1245
1 9.9165 25.2676 19.283
1 3.81198 16.3168 14.9075
1 29.999 20.5742 28.785
1 16.9938 25.3504 24.7817
1 10.6952 15.8268 18.4409
1 5.93494 18.458 22.63
1 29.9702 10.548 23.2316
1 15.694 25.731 24.1733
1 9.0643 18.5742 8.82174
1 20.079 6.50904 25.5121
1 6.42423 8.08972 17.3627
1 13.7816 14.8072 27.8034
1 6.42148 2.33151 22.2161
1 24.0326 27.7353 3.23115
1 7.22713 10.9987 28.6724
1 4.68196 2.08687 8.32156
1 15.5331 5.93084 29.4315
1 0.449543 21.1409 25.216
1 27.4522 29.3343 24.5188
1 5.27037 14.7761 19.4107
1 8.7294 18.8569 3.30696
1 3.28172 5.07635 1.86496
1 24.9067 10.585 20.6852
1 6.45415 14.6185 3.58934
1 15.8422 29.3904 9.27431
1 25.7145 27.2676 1.30571
1 26.2028 2.24445 6.11946
1 21.8163 29.4814 26.4058
1 19.292 7.29864 16.8499
1 3.75998 8.19418 29.3209
1 20.7417 1.25694 6.95203
1 24.9676 27.3107 22.0325
1 15.8379 12.4816 23.6877
1 21.2765 20.0764 2.11736
1 26.6717 22.1152 8.92007
1 5.96388 4.31438 16.9639
1 13.8119 13.461 27.9842
1 26.4688 27.6526 19.0224
1 1.35473 9.97362 20.6207
1 14.4596 3.40404 12.2555
1 1.01223 24.9659 14.4516
1 14.99 15.7501 29.0465
1 16.3802 18.0647 18.963
1 10.3775 7.62939 20.2645
1 18.4988 12.2829 14.2831
1 9.09479 7.34099 7.85425
1 5.91432 26.3582 1.84214
1 13.8806 16.636 19.6512
1 14.3589 18.1953 6.99416
1 12.177 7.99753 18.5396
1 22.9772 19.2081 15.1179
1 3.35238 12.6141 20.3651
1 9.12353 28.0941 19.0183
1 6.86649 23.7014 10.1184
1 25.6701 4.21038 26.0291
1 28.0073 23.8715 18.5905
1 3.2441 9.16037 8.94541
1 4.97057 10.2058 30.3143
1 19.5885 29.4394 26.5213
1 18.9205 1.20767 17.7528
1 12.2442 3.48057 26.179
1 21.9286 17.5139 19.0732
1 8.37257 21.9575 20.7352
1 8.49581 18.3665 4.56221
1 12.7005 0.794092 16.1045
1 29.9631 30.4202 7.47652
1 8.8239 19.422 28.1742
1 10.8107 6.62163 16.6487
1 7.60925 24.6503 27.7251
1 19.1594 19.0548 3.55052
1 28.3058 26.7897 6.00995
1 7.38332 28.2051 11.528
1 27.3915 13.8731 10.6502
1 26.4119 29.7791 2.52614
1 27.1493 0.459829 22.6992
1 4.26614 15.4414 4.19816
1 28.1671 2.03614 28.099
1 13.4273 26.9079 29.6879
1 29.9252 14.7163 1.09739
1 23.7643 25.0901 1.4956
1 28.5409 4.68535 13.1153
1 26.9145 9.26687 0.571665
1 8.06318 19.1437 13.4206
1 11.7502 6.17646 3.69204
1 24.9288 3.27621 25.3579
1 26.8839 18.1186 28.6466
1 7.86973 24.7507 9.78604
1 16.093 4.51412 18.5961
1 4.58489 8.43853 13.5832
1 12.017 8.81316 8.63346
1 13.4755 5.23212 15.1103
1 26.407 6.15914 5.01917
1 13.6727 29.1816 27.5952
1 7.47626 20.8443 11.2781
1 11.6376 5.64132 5.04575
1 21.8601 8.3797 20.831
1 3.61876 27.1989 10.2262
1 10.1243 1.24095 26.7849
1 27.0117 30.339 25.2695
1 9.92334 2.23431 13.0843
1 11.9286 29.8729 8.30762
1 27.3199 12.4909 18.7301
1 0.600423 8.79986 1.06987
1 0.197481 24.4772 29.3955
1 12.2697 20.4261 26.6869
1 16.5171 22.8915 8.45336
1 17.8957 20.0928 8.20962
1 19.4911 9.29842 2.74631
1 11.1695 14.7512 19.4585
1 8.3934 9.81949 9.89661
1 14.5441 23.2807 11.4166
1 22.9287 13.4778 9.13861
1 24.4943 29.963 27.9996
1 6.01228 22.7078 27.0098
1 16.609 25.3613 8.25475
1 28.0493 22.8083 21.7453
1 27.4932 9.96402 29.8631
1 16.9972 21.7402 17.0414
1 24.7965 17.0232 27.4408
1 13.4371 24.2049 1.21102
1 25.4211 6.71636 12.4836
1 3.14163 12.1988 27.0615
1 1.88675 17.3082 30.0669
1 1.00743 28.9662 26.866
1 15.5943 7.28508 29.4858
1 18.0171 0.621524 16.9555
1 20.7502 11.9615 23.328
1 13.8121 10.548 10.1514
1 24.9006 19.8604 13.7764
1 7.80984 14.4164 24.7153
1 5.06699 2.02639 9.65736
1 14.7135 0.65205 12.3233
1 10.3584 5.27218 17.2613
1 6.83315 20.4179 19.608
1 6.28682 9.81592 8.43774
1 19.2907 8.83834 24.4996
1 18.2229 18.8026 23.7086
1 4.07555 6.07229 16.7433
1 24.6038 0.411687 19.975
1 17.7636 19.2219 17.0145
1 27.8149 18.5958 17.2606
1 11.1078 16.0321 7.79453
1 23.0932 25.6302 23.607
1 13.4988 21.6353 24.6833
1 23.7457 22.8984 26.3887
1 22.1641 26.2222 19.744
1 29.3374 20.0824 23.3365
1 14.1769 18.0916 24.5306
1 30.1599 23.237 18.8013
1 0.437504 13.4877 15.7876
1 17.9632 10.5849 11.611
1 30.0182 7.06248 26.9366
1 21.0847 12.3902 4.18185
1 16.5723 25.7309 14.2197
1 16.5179 17.9544 20.4329
1 15.1829 27.3443 7.27497
1 0.179119 14.7936 18.6318
1 24.0696 18.8063 18.822
1 21.9492 5.70018 5.82005
1 19.8305 13.2706 6.36994
1 9.25724 18.393 13.9122
1 20.8308 18.8756 3.26285
1 28.334 23.3935 2.73175
1 12.8448 20.8537 2.12132
1 12.3683 21.3005 14.9424
1 0.341107 26.3511 26.526
1 5.42643 14.6088 10.4729
1 26.9198 6.40709 15.6315
1 7.72731 21.124 6.17735
1 3.59169 3.13633 18.1693
1 5.24481 21.636 26.3255
1 2.20731 9.57347 28.1857
1 28.5082 4.67401 18.0691
1 17.5851 21.7833 12.2806
1 21.0695 26.0707 15.3502
1 28.1186 10.7556 17.0626
1 27.3338 16.2054 3.36907
1 11.9601 2.08027 28.4616
1 29.7924 6.94029 19.3916
1 1.32541 11.0767 5.74768
1 2.79382 13.217 21.7911
1 19.6102 6.41756 3.4339
1 23.0581 18.2741 19.7551
1 16.8145 5.84435 1.36753
1 0.573209 6.36989 9.72559
1 17.6525 9.2062 15.5427
1 19.6389 2.74804 27.7188
1 10.8525 6.72825 26.6171
1 30.3637 21.289 21.5787
1 8.47777 18.7664 17.3959
1 13.5618 9.82316 7.11578
1 3.77465 29.647 5.60015
1 14.6221 5.7251 3.13163
1 6.53249 23.4781 14.4312
1 8.20098 7.37507 3.01038
1 6.78742 13.1801 29.444
1 19.7889 27.9611 23.6422
1 6.88153 7.10483 16.4471
1 23.7256 12.3787 2.12926
1 27.0126 12.4998 1.95031
1 29.2946 8.43415 29.2587
1 7.05323 12.0557 25.9123
1 23.8926 26.644 29.8591
1 14.6645 7.91081 18.9869
1 7.38538 4.35579 5.95678
1 15.0964 2.11867 5.793
1 14.5873 23.6461 0.659994
1 11.6863 16.323 28.9582
1 23.9319 10.0505 0.285385
1 5.09513 29.606 11.4277
1 10.7358 10.284 17.3713
1 4.27405 4.64199 23.9193
1 25.9114 6.86549 9.4779
1 5.7308 26.6593 25.0967
1 2.58519 1.57132 13.6202
1 11.6005 19.232 19.1996
1 18.8843 23.8404 27.7369
1 23.3793 20.2609 19.1826
1 24.5388 20.2452 3.05068
1 12.7205 27.4317 8.18184
1 8.16909 16.8056 10.2293
1 25.448 11.1689 8.03184
1 7.12329 29.533 17.3531
1 29.6502 29.3393 2.71896
1 14.102 20.5559 6.44999
1 9.2845 5.39631 22.5166
1 3.29272 30.3881 2.19476
1 4.88598 24.2941 19.209
1 21.8941 10.4261 18.8882
1 6.46022 8.13619 1.16865
1 4.89355 13.7971 23.9251
1 15.3896 3.935 23.9856
1 26.0425 21.5516 6.66227
1 18.1941 25.1961 11.5527
1 14.5398 23.7849 6.36751
1 6.72127 8.07155 30.0887
1 8.45391 20.5161 15.2761
1 13.5862 23.8327 28.817
1 17.238 8.74218 20.317
1 24.4651 6.64357 15.572
1 18.5721 23.5287 9.8704
1 1.88518 18.6788 19.8073
1 5.12248 6.01616 26.4312
1 15.4383 15.1979 22.344
1 12.9475 20.9367 5.99912
1 11.0865 29.3996 14.2788
1 19.5511 30.1302 3.08495
1 0.457227 22.5716 13.4363
1 22.3826 24.2677 6.20674
1 17.8448 28.2464 4.73511
1 5.24943 12.4221 2.171
1 18.2219 6.83396 6.94048
1 22.2062 2.62428 28.0301
1 21.2036 20.9612 10.7742
1 7.06513 14.1099 1.99914
1 17.1888 22.0736 25.4814
1 16.1066 7.88433 6.02582
1 13.2128 18.6978 12.4964
1 25.9105 8.40777 4.9534
1 2.68925 23.7695 11.8001
1 23.503 7.63142 5.1858
1 5.88328 15.4379 30.3582
1 30.1775 8.0171 3.2885
1 18.6274 7.58525 23.5096
1 25.7003 5.95641 3.1993
1 19.7583 15.0465 11.2396
1 19.3821 6.15384 9.74415
1 0.547626 3.59025 11.7473
1 22.1123 19.4848 13.1857
1 12.9096 11.5859 17.3333
1 10.4358 14.6205 25.9491
1 6.50192 28.8596 13.853
1 4.07572 9.69855 18.4084
1 2.86003 26.9415 4.28531
1 17.4896 20.9918 14.6855
1 2.55628 20.2043 24.6205
1 22.2791 25.4449 15.504
1 17.1348 17.6816 12.8091
1 0.338226 13.2513 2.75899
1 12.8832 3.29495 7.65016
1 13.3165 28.7449 20.1751
1 17.2172 27.882 15.0195
1 4.72805 25.1676 7.79014
1 23.0909 17.4496 8.80545
1 14.2292 27.4253 17.0755
1 30.3297 26.0559 7.64004
1 29.3857 30.0531 19.8286
1 5.93097 14.5876 6.22756
1 1.02198 10.0495 12.9868
1 8.48102 20.2486 7.28661
1 29.6341 13.995 18.1263
1 6.49589 0.334753 0.152814
1 28.701 22.2751 26.9323
1 16.7827 22.0783 3.85383
1 0.381323 11.7619 8.05622
1 13.1978 23.0549 3.37872