4096
Atoms. Timestep: 100540
1 28.5088 12.4696 6.65949
1 22.3755 11.4623 8.87557
1 29.7245 18.9331 25.3924
1 3.60617 1.74971 12.243
1 13.6083 14.05 15.1013
1 21.5989 5.36821 9.54111
1 19.1828 6.05396 20.9837
1 23.1874 0.274779 22.9802
1 28.3485 22.5853 19.3347
1 26.854 8.31771 9.37512
1 16.6271 4.50452 29.2539
1 20.171 20.6676 17.8266
1 16.6464 25.165 3.41092
1 24.0401 16.5398 1.95531
1 25.0351 26.9468 22.6936
1 19.379 19.3473 20.974
1 13.8901 21.9968 13.6474
1 21.3422 16.1452 29.0724
1 9.33049 12.9605 11.6753
1 22.8179 25.4197 9.04121
1 26.1474 9.60785 11.4203
1 20.7678 9.8667 7.70082
1 25.5213 12.5218 11.7556
1 22.0618 18.9354 6.70191
1 18.0657 11.9145 7.31459
1 15.9361 7.04811 11.8703
1 28.4553 25.4561 19.3106
1 9.11191 1.46167 2.93184
1 21.8375 5.90688 4.18677
1 24.1759 14.6099 23.3471
1 29.3933 5.51924 10.2382
1 15.8296 10.0388 1.59809
1 15.4496 1.92713 13.9058
1 5.48587 12.8584 2.85438
1 19.7188 13.918 10.6555
1 10.003 0.63681 3.54072
1 18.9728 11.6498 2.3991
1 17.1885 29.1622 24.5163
1 8.46937 24.3603 2.17554
1 9.16325 12.1866 18.7974
1 23.5955 25.1024 22.2728
1 10.7519 27.7494 20.4964
1 0.532191 27.6817 24.9733
1 20.1862 23.5487 18.7566
1 9.80027 12.48 8.82491
1 7.92078 19.0162 26.1728
1 22.5636 12.9713 19.4903
1 4.7266 2.22328 6.73034
1 22.514 5.08694 2.9905
1 16.97 26.0065 8.04527
1 7.30452 3.12146 5.75951
1 4.03251 18.5645 17.4984
1 10.6318 21.0866 14.1355
1 24.7585 8.64169 24.1761
1 20.5443 10.0016 19.3409
1 11.3474 24.0796 26.4474
1 17.4328 14.2992 6.57189
1 18.3149 7.35765 12.7894
1 23.0007 0.286435 20.091
1 5.31385 28.2816 15.17
1 27.7609 22.6282 13.8433
1 13.555 21.3197 25.2741
1 28.9435 16.489 11.4353
1 26.3793 24.6923 16.122
1 17.6091 22.8446 29.8481
1 13.286 7.49511 12.8176
1 3.67518 5.90491 25.4595
1 3.89959 22.0859 5.91864
1 3.27413 16.6549 30.2376
1 30.3065 18.7174 22.5817
1 28.8758 8.41417 11.9952
1 1.22913 22.729 1.06117
1 3.41171 6.76866 18.8093
1 29.9379 5.02671 28.9908
1 15.3913 25.5415 15.9311
1 22.7643 8.35314 13.2617
1 5.26336 28.3003 19.7355
1 17.4455 11.7442 30.3258
1 21.9656 10.4409 18.4459
1 27.9432 23.3497 17.1087
1 9.49489 14.7598 11.6394
1 0.891552 8.13024 1.1349
1 24.8242 18.3538 7.03906
1 30.128 4.90791 14.3772
1 29.3184 20.6598 4.89301
1 0.690144 23.5409 14.1756
1 8.31161 9.09325 1.39547
1 2.36732 17.1287 1.53658
1 13.8283 5.64438 16.5259
1 4.80407 1.00034 30.1516
1 2.99984 28.1763 23.2564
1 20.4648 20.1988 2.80892
1 7.03215 27.8448 2.42719
1 25.8785 18.9629 10.5056
1 14.1367 9.55109 6.80465
1 28.0809 13.2509 24.0354
1 23.3896 11.5021 14.7023
1 14.9658 27.0456 22.5066
1 19.0741 0.246765 4.29845
1 23.8553 7.66134 20.5645
1 29.8985 2.25485 3.7217
1 3.21419 16.4011 5.63082
1 23.399 11.1899 2.92267
1 24.4573 5.70556 14.2006
1 5.98616 14.485 29.0617
1 25.3422 16.0654 24.8189
1 1.31651 23.1262 11.0982
1 24.7842 28.0902 10.2035
1 17.4406 10.0409 20.2391
1 9.33187 14.1539 2.73558
1 23.6268 4.44405 16.1969
1 11.7522 27.4415 27.4519
1 14.472 24.4787 18.6387
1 25.3151 5.60726 29.4936
1 17.8206 26.1662 18.9874
1 6.16054 28.3171 0.382538
1 0.719264 16.1405 1.87469
1 19.6681 15.1251 6.57681
1 2.26819 5.70379 16.7697
1 22.5395 19.4298 30.001
1 27.5102 10.5111 9.67187
1 1.76455 28.3389 25.313
1 29.0207 6.14988 20.4773
1 16.3139 13.2403 28.2425
1 7.40099 27.5195 10.4305
1 26.4018 10.3852 12.7246
1 18.1556 20.6594 25.5779
1 25.8369 14.2193 14.5372
1 10.1138 9.35854 8.57098
1 13.3038 8.27552 24.2903
1 18.004 28.1139 14.7254
1 27.4129 16.6944 11.3499
1 7.93897 4.64013 3.43031
1 24.2997 20.0982 25.2785
1 8.53226 28.4513 29.4989
1 2.73719 4.12025 10.9323
1 9.59477 2.539 22.9012
1 18.1328 21.9691 19.149
1 24.3317 16.226 14.5603
1 16.566 20.3633 18.8709
1 17.1326 17.4389 2.87971
1 1.06071 22.8533 7.71962
1 7.67746 17.2927 4.20682
1 26.2222 0.782366 14.8092
1 21.5883 18.2398 4.53605
1 5.94039 9.1615 6.2964
1 8.91415 19.5737 11.6754
1 11.3134 10.4227 19.178
1 1.69888 1.53344 7.82656
1 23.7091 21.9904 12.7916
1 16.1971 27.1431 7.53758
1 12.9428 14.5419 22.8461
1 27.0621 1.15878 19.2353
1 2.46343 2.89481 19.3862
1 5.52538 13.3961 14.3746
1 28.5788 30.0593 21.2915
1 11.42 20.7253 24.0112
1 29.6739 7.7008 23.313
1 21.019 0.982474 5.54787
1 29.5755 13.6654 28.8
1 27.8871 23.9238 26.708
1 24.2072 29.3744 9.65065
1 15.2897 18.5886 29.5881
1 3.60933 14.1507 9.427
1 6.24668 4.83675 22.6742
1 26.9606 27.1051 11.2443
1 1.93067 0.937576 4.13059
1 26.7179 12.2426 0.390145
1 8.20155 14.4261 21.3949
1 11.6161 2.13985 22.7968
1 11.2575 17.3563 2.61139
1 19.6258 6.1518 2.76882
1 12.6076 24.7092 26.8749
1 17.7604 15.7083 15.4289
1 16.4846 5.73355 28.3543
1 13.4627 12.6392 15.5526
1 19.4357 8.6808 26.2676
1 8.28192 10.3816 13.477
1 28.8772 12.9029 19.4078
1 10.6846 1.43823 1.10605
1 29.6302 4.10789 24.4255
1 26.0694 22.2311 25.8537
1 2.64929 25.4747 9.49064
1 29.3399 6.16651 27.2719
1 30.0455 8.073 26.3521
1 30.0397 0.528463 23.5181
1 4.93091 24.2134 7.1645
1 10.0898 20.3413 23.8672
1 19.3038 17.3025 28.3207
1 27.8353 5.96514 25.064
1 9.00091 16.7985 29.0831
1 7.42532 20.0625 22.1823
1 9.12701 11.0132 2.98719
1 3.74614 19.1946 7.73402
1 25.2017 26.3942 19.8425
1 12.5326 2.13485 28.6574
1 17.9547 10.0128 9.1346
1 9.70748 15.7753 9.21434
1 27.4902 2.83705 1.70475
1 18.935 23.7729 11.1015
1 25.469 20.5528 1.83869
1 5.91786 24.5153 24.7477
1 17.4553 11.1664 16.2463
1 3.92679 3.34687 8.76325
1 12.7579 26.9509 21.2945
1 10.8736 9.27601 4.06416
1 10.4125 6.96032 5.25106
1 28.6728 29.8009 10.2675
1 16.4272 14.3122 19.8552
1 13.7475 1.64625 7.70346
1 12.5728 30.2447 26.8113
1 5.61854 15.5152 5.17203
1 15.827 22.1532 8.29438
1 26.6946 16.4521 4.27216
1 25.0258 29.7308 7.21724
1 12.8966 16.1862 17.1089
1 14.3176 29.7594 29.0605
1 10.04 2.50664 15.9134
1 14.2171 6.85177 5.11233
1 13.2897 23.8199 2.96436
1 14.1845 0.835523 17.6853
1 20.3042 2.50353 3.66555
1 27.3826 18.1601 24.0639
1 27.3624 8.68437 18.5091
1 19.83 11.881 16.9523
1 22.731 12.8082 8.49494
1 1.99169 12.8702 25.998
1 8.22956 28.1409 25.628
1 27.7637 23.475 22.1172
1 17.3975 5.58933 16.2937
1 9.8958 21.0541 29.914
1 8.02357 13.2247 7.46342
1 8.57509 25.6454 9.96287
1 13.1454 17.6603 23.5747
1 26.0178 25.9691 15.5547
1 7.80463 3.40211 1.11202
1 18.044 26.9719 30.189
1 6.45168 10.069 27.0579
1 18.7858 26.4476 28.9268
1 14.8739 20.6517 29.7039
1 9.16907 17.1812 22.3372
1 8.65159 5.05864 17.2443
1 26.7919 25.9065 22.7742
1 19.6612 27.7098 7.26007
1 12.6149 1.59498 24.963
1 13.4469 20.4969 1.66696
1 27.3076 16.5963 28.9218
1 6.87769 11.0567 26.359
1 27.8959 6.97606 29.4515
1 27.4478 7.23939 12.53
1 26.9401 16.52 15.2932
1 20.0856 17.431 17.571
1 2.71283 26.9337 3.0479
1 13.8684 13.7534 24.948
1 14.5944 0.492677 24.0187
1 23.153 3.91114 7.95026
1 9.82545 8.40506 21.5718
1 3.76168 8.87562 7.80468
1 24.8127 3.62113 0.9621
1 12.1164 9.45482 10.9734
1 20.361 7.58638 16.3242
1 13.3345 2.75027 16.5754
1 4.84353 5.71264 4.38056
1 16.2469 9.63276 2.87425
1 22.3475 1.58751 26.0245
1 18.0622 10.4258 6.4219
1 5.41843 8.56779 25.4322
1 5.58579 5.11305 0.357275
1 19.3487 16.233 5.81197
1 19.3208 19.2526 6.9394
1 23.6046 10.2711 30.0487
1 1.74217 12.8491 22.3007
1 26.8756 11.6657 10.3088
1 7.01635 19.6137 30.279
1 11.0615 11.4709 21.083
1 13.8247 14.5938 29.3806
1 5.76159 23.9532 17.2553
1 22.9097 4.81199 10.4865
1 20.8251 10.5032 26.8527
1 5.03181 10.979 10.3246
1 28.8169 14.5625 21.1665
1 12.1121 8.3954 7.35427
1 29.8822 20.8376 22.3977
1 25.2337 26.0779 14.4748
1 22.8121 16.1806 12.0374
1 20.4624 5.05752 18.2688
1 17.9963 24.8146 25.3342
1 4.22285 13.1747 3.00546
1 5.428 15.7651 2.32995
1 0.615687 13.1439 7.41894
1 4.32285 12.5512 22.6912
1 4.41065 12.5616 20.4133
1 14.7741 1.41197 8.39813
1 13.4832 7.27356 14.3527
1 29.0976 29.5494 16.54
1 3.55511 14.285 6.11205
1 29.8618 14.7773 14.793
1 25.798 28.1706 11.2269
1 11.8476 22.4577 10.2857
1 9.52375 15.6439 27.1201
1 14.7507 9.77285 22.6139
1 6.81009 24.1964 27.059
1 1.6993 2.79254 10.21
1 16.9679 23.0461 4.87125
1 22.9973 14.6457 28.7796
1 2.81926 29.8455 5.9504
1 17.4529 12.4115 11.4992
1 27.943 14.9173 9.66802
1 1.27159 16.2309 12.2577
1 0.755367 25.9807 13.3981
1 25.0242 12.3374 9.10026
1 26.1794 28.4656 22.0188
1 17.7295 11.8285 4.33155
1 19.9927 8.1511 4.3381
1 23.2735 17.4973 6.98186
1 7.07621 20.5832 5.48361
1 21.2546 5.24233 8.14942
1 13.5964 10.8365 23.4015
1 18.0349 19.6545 0.690559
1 26.5312 3.44461 8.3362
1 6.07597 28.2652 27.7952
1 19.6432 29.358 13.1827
1 24.4222 22.6714 19.7835
1 1.39675 12.5969 10.829
1 5.03454 1.05198 8.79503
1 29.9648 16.6857 25.0554
1 5.02862 1.05742 4.70618
1 22.5837 6.01021 27.1679
1 14.1335 27.4803 21.2084
1 6.07219 1.58109 0.267456
1 29.5462 0.496491 5.44117
1 30.2006 27.2344 4.10587
1 22.8978 21.0622 1.39256
1 24.8665 30.2447 8.486
1 20.7856 17.8604 8.75818
1 15.7717 18.1932 7.81913
1 5.68106 29.0941 16.2283
1 23.2278 11.5198 10.9173
1 18.9253 16.9583 19.3042
1 3.87555 8.92265 0.373857
1 2.58927 18.5243 7.52207
1 21.5945 9.2764 16.4862
1 5.37245 16.9612 21.4723
1 3.66443 12.6582 9.91952
1 29.3853 0.535008 30.0348
1 7.99173 8.87879 19.8114
1 4.17258 8.05706 10.323
1 12.0543 22.3534 4.5142
1 15.7662 7.90365 28.9077
1 14.7746 2.37736 29.1582
1 20.8089 11.2941 16.1758
1 11.1521 17.7442 16.8047
1 25.914 11.0514 22.6139
1 29.8595 4.36736 2.61626
1 17.7906 22.9557 2.15492
1 3.22475 3.19368 24.9688
1 9.64068 4.54898 14.091
1 23.8004 19.6274 5.26784
1 23.533 25.6667 13.1079
1 22.0944 15.7639 11.048
1 13.3437 13.0441 5.7391
1 29.9984 17.4255 23.2283
1 12.6987 5.39292 29.8911
1 2.70262 30.195 1.87269
1 5.22395 5.4431 25.1553
1 22.3978 19.8327 11.9155
1 19.7342 16.206 25.1253
1 5.99486 22.723 4.67968
1 1.78541 29.4033 18.9865
1 15.2652 20.4159 7.04321
1 2.95529 13.4265 0.294053
1 8.8554 13.5353 4.09574
1 24.8933 20.6237 8.73244
1 11.1214 13.4356 28.8311
1 5.52852 10.7065 18.1124
1 6.95825 29.5221 4.53807
1 11.9986 8.07634 26.765
1 26.3265 11.1865 16.9033
1 14.8692 29.7569 8.76004
1 27.9808 20.7269 11.0193
1 23.0215 19.9833 6.57295
1 13.9562 30.3053 13.394
1 21.062 27.6906 2.01362
1 23.8036 4.06176 28.6885
1 20.7969 14.3555 27.5373
1 22.0327 7.33034 1.3193
1 21.0424 7.37843 24.7915
1 8.6894 21.9009 23.0261
1 11.8877 3.20611 14.5349
1 22.2288 22.1576 3.68654
1 27.3112 14.3767 18.325
1 24.1983 1.56012 8.72976
1 3.68019 4.37232 2.48518
1 7.02066 30.0984 14.5249
1 14.5231 19.3089 28.4697
1 10.111 6.54574 3.9157
1 16.5572 10.3072 9.00318
1 13.4022 29.6206 8.25032
1 10.3486 26.0306 11.6849
1 25.3655 2.25602 26.6042
1 12.6844 6.62086 19.6663
1 9.76579 7.43325 2.77041
1 12.5132 21.6943 7.04518
1 24.5891 12.8857 12.7734
1 28.5603 23.2939 11.774
1 28.1843 27.0683 27.7406
1 18.6428 5.27981 5.14175
1 14.3067 21.1056 11.7427
1 17.4111 7.79006 25.7345
1 27.6859 19.5163 27.818
1 29.6359 4.84709 0.294586
1 7.40567 25.7536 9.33162
1 11.4415 5.63432 29.4899
1 19.2566 20.0603 28.1473
1 26.0009 14.0124 11.1689
1 5.58139 10.1265 3.87591
1 0.921071 13.2052 26.9724
1 2.31707 20.5823 21.4371
1 28.5046 9.57386 12.7727
1 19.4632 26.1998 7.32436
1 23.5346 26.3757 5.00928
1 8.41485 29.0655 17.9218
1 18.4895 27.8139 25.9072
1 4.19021 3.17798 5.97836
1 29.1476 13.8778 2.18604
1 8.02565 10.7258 22.1868
1 11.8628 29.2394 26.2548
1 24.8511 2.02057 1.35138
1 18.7564 21.5622 24.4971
1 28.56 20.2573 19.978
1 4.69708 27.8506 6.96083
1 24.4855 4.25377 7.5424
1 20.3953 28.5883 17.7473
1 3.91761 13.6723 27.7933
1 2.70496 25.5823 6.35683
1 14.8342 16.6569 25.2149
1 10.9393 28.0196 18.0469
1 8.85137 30.0775 7.48363
1 15.6886 16.8896 15.6037
1 9.30346 5.42155 28.3353
1 6.90769 8.64091 12.6309
1 3.85372 2.97157 13.0668
1 25.4283 22.6048 21.2419
1 19.7604 2.56543 7.20881
1 11.9436 21.4372 9.61761
1 19.2082 12.4364 7.64397
1 11.4925 20.5553 11.7197
1 5.33294 20.2806 13.9574
1 2.17375 19.2578 26.3874
1 3.96489 1.66054 27.9186
1 20.2055 14.8085 4.1719
1 16.0672 29.5109 25.5894
1 2.59381 14.6308 1.03708
1 12.7283 27.7886 5.37304
1 7.10374 19.8329 23.8204
1 21.8687 11.0937 12.9478
1 8.93645 11.1029 6.94102
1 8.94305 25.4159 6.71014
1 6.0821 10.4651 23.8496
1 7.53032 5.63773 19.7213
1 10.1791 28.1136 16.8295
1 15.2909 26.736 24.6189
1 19.4991 29.9428 19.6683
1 20.1378 5.67792 27.9105
1 12.5426 21.1942 29.8164
1 3.30038 12.381 13.3305
1 12.2394 12.8429 11.5672
1 5.67341 26.8004 11.5801
1 0.645284 23.9711 8.58517
1 1.81423 15.1747 13.2137
1 12.8545 13.1856 3.32638
1 0.358687 8.38742 28.4818
1 9.7472 8.78873 24.8504
1 3.8913 24.7202 1.40828
1 2.94144 8.73316 27.9274
1 28.1576 30.2776 19.7403
1 29.541 29.1206 7.152
1 25.4015 0.841576 19.5508
1 0.61963 19.1065 18.475
1 15.7225 27.2902 10.031
1 20.8256 9.38508 12.8398
1 4.33265 19.8294 6.47729
1 3.96091 28.0513 1.53908
1 13.1527 9.79345 27.6123
1 15.9937 23.142 13.8846
1 8.48233 24.2764 23.9861
1 21.7185 23.1864 6.3716
1 8.83103 18.3587 10.7167
1 10.9673 8.45878 22.4915
1 5.02197 14.6083 21.1522
1 1.43919 30.126 16.593
1 13.8134 24.4893 8.00706
1 2.67226 28.6378 9.88852
1 10.442 14.6817 18.5781
1 19.5597 17.5398 7.65129
1 3.30666 21.7901 21.2389
1 26.4218 22.4677 14.6699
1 17.1851 25.2315 27.7211
1 15.5247 3.97617 21.348
1 17.0153 0.337582 9.39803
1 21.5545 17.5009 22.5826
1 8.95109 19.9921 7.38169
1 27.0186 14.3659 12.3749
1 20.0469 30.1057 7.98647
1 26.5571 29.5622 11.6529
1 23.9938 12.4839 21.3714
1 1.59223 27.6229 11.6348
1 10.5953 18.6665 20.492
1 3.15214 17.6792 5.31309
1 5.70806 15.7796 17.1519
1 5.62251 19.8424 27.2547
1 7.0532 5.00585 4.30804
1 1.30579 2.26836 3.88208
1 23.58 10.2532 22.7575
1 26.0365 12.3302 6.88361
1 24.0291 27.8706 28.0844
1 23.1325 9.22541 9.67101
1 1.14474 17.922 18.765
1 30.1342 28.4385 4.76131
1 5.8512 27.1205 8.68173
1 15.59 10.86 18.1269
1 6.17366 15.7565 12.8188
1 18.3063 3.21963 11.4201
1 4.73389 9.99308 6.50347
1 7.15923 6.67876 28.0543
1 16.1622 15.1279 6.32599
1 11.7201 29.9979 16.3245
1 13.8093 22.4958 1.0071
1 1.46845 6.36659 10.9623
1 5.07316 28.7902 13.9913
1 25.5604 25.9911 30.1808
1 7.13382 22.0836 17.0226
1 19.569 12.6843 28.752
1 7.06788 25.6787 16.1309
1 11.4177 16.2232 22.5396
1 22.771 7.21158 6.1763
1 21.3671 19.3817 8.22148
1 11.38 2.51208 15.8551
1 9.47955 6.14944 24.3001
1 21.9919 11.9977 14.3079
1 23.8952 10.7038 6.82735
1 5.92409 4.63855 27.9516
1 4.98532 2.92677 24.4472
1 16.0352 13.0071 5.86047
1 18.313 8.7669 9.05016
1 4.78923 4.03487 27.7997
1 24.5851 30.2645 10.979
1 4.86908 26.4596 21.3229
1 22.5469 29.0885 11.6934
1 22.2849 13.3529 14.7312
1 20.4538 22.8099 5.57673
1 22.0066 6.16685 13.6009
1 4.82506 16.2169 26.9741
1 28.5405 24.9145 9.8803
1 12.1098 10.2921 8.48747
1 11.9361 2.99718 17.0918
1 8.37092 10.7834 18.3942
1 1.12032 12.7281 4.94217
1 28.0102 9.89262 6.10615
1 11.2633 8.34884 17.2982
1 26.5139 2.00436 23.8453
1 21.2112 25.1659 2.34358
1 6.85592 9.4049 4.88098
1 10.1203 4.56532 19.3597
1 26.768 15.8428 29.9555
1 4.90996 26.3024 10.3808
1 13.1498 7.87707 19.2848
1 13.0871 14.4723 0.591122
1 14.7441 5.63974 8.61813
1 15.9925 10.0007 23.4402
1 20.4664 13.1473 9.69812
1 29.8986 5.91293 21.8454
1 6.67912 23.5939 15.2177
1 21.4747 22.0269 8.49207
1 21.1755 8.34279 17.4153
1 9.76858 11.4188 5.07132
1 4.32032 9.01729 23.0035
1 20.1816 7.64405 23.4852
1 14.7112 16.9856 29.9746
1 27.8757 20.5736 8.2133
1 5.88262 26.6889 22.2954
1 26.9894 17.6056 7.51545
1 7.36355 8.95094 14.9296
1 17.8864 15.0178 24.4112
1 11.6779 4.84189 24.7206
1 5.30398 21.9962 27.7274
1 4.09464 4.49218 6.55337
1 26.8325 2.78317 21.0766
1 13.5748 6.51321 28.4969
1 7.92016 26.2606 19.1113
1 26.5486 22.3292 7.2295
1 8.69443 2.13856 29.4777
1 23.3757 10.9907 16.3524
1 1.85472 12.239 30.2884
1 0.558787 19.9671 23.1497
1 28.3432 12.1748 11.3409
1 18.9659 20.8306 14.4124
1 0.380906 17.0983 13.0196
1 7.51098 6.11647 25.5199
1 19.7502 27.3354 12.0076
1 5.34313 2.81629 2.14791
1 23.9123 25.4748 11.1118
1 17.8549 11.0442 29.2106
1 16.0924 24.508 30.164
1 3.91987 26.0549 0.906769
1 10.9757 7.60588 10.3476
1 12.4187 6.18282 14.6973
1 8.99495 23.8674 21.0956
1 0.724399 23.6427 16.8334
1 20.5191 4.01754 3.77578
1 1.52252 16.6075 10.8575
1 29.8805 14.1975 25.1537
1 6.52044 29.9543 23.515
1 27.9307 6.17585 0.640058
1 18.8935 8.09844 16.431
1 26.7092 28.0754 18.3031
1 9.9202 5.41909 16.9834
1 27.9631 1.17319 22.2439
1 0.878442 13.8666 17.861
1 24.6566 17.9857 22.9443
1 22.2839 9.37808 12.579
1 21.0061 21.5466 15.8723
1 2.03752 20.2755 16.8115
1 29.6054 1.22411 15.8275
1 28.9131 11.3898 19.257
1 0.260576 8.47259 3.59582
1 28.3626 13.2455 20.7593
1 13.8865 2.19524 5.26235
1 22.1982 18.7663 17.5497
1 2.22919 8.95559 11.8939
1 13.0403 27.4169 0.85375
1 19.0036 26.603 10.8919
1 27.7882 13.0026 18.5514
1 14.7224 19.2378 23.2963
1 25.273 6.48037 16.629
1 12.8832 29.0031 24.3287
1 1.55975 3.97616 13.0857
1 8.19868 2.47495 26.3431
1 29.8956 10.6655 10.0762
1 21.5565 5.93335 20.3133
1 23.9492 13.3895 26.4696
1 15.7336 25.7643 4.15199
1 29.9956 14.9126 17.3686
1 24.848 7.6994 12.3209
1 10.1432 8.74683 12.5303
1 16.4736 24.0185 27.96
1 5.5097 9.14231 24.1384
1 21.4642 24.4044 11.0576
1 26.2453 5.18012 20.777
1 12.886 8.33306 16.8792
1 29.6615 5.53525 24.1529
1 6.45556 16.3673 6.34607
1 2.54314 16.9181 9.90597
1 4.25544 23.8325 22.296
1 12.1425 23.2878 24.2059
1 23.6847 3.26174 4.3216
1 22.4531 17.3235 15.6768
1 1.66249 28.9029 17.7046
1 15.914 23.2499 23.7539
1 30.3089 5.82082 11.2704
1 23.7188 14.4392 25.5951
1 10.7479 14.6931 0.986667
1 6.58967 20.6049 17.4152
1 12.0218 14.9945 3.07466
1 13.5943 29.4891 3.67024
1 14.8361 26.9555 29.6176
1 8.20417 25.9034 1.875
1 24.5255 16.9049 18.6904
1 0.50015 24.5323 12.7781
1 22.229 13.4607 12.0367
1 25.3212 12.3013 18.8067
1 18.2018 10.8644 22.5579
1 4.66258 0.987723 13.1041
1 24.7799 6.0401 7.60967
1 11.4349 24.6371 21.5253
1 7.22786 27.1975 4.71846
1 13.0856 24.5927 1.50549
1 9.82506 7.56532 15.0181
1 25.7177 21.1463 9.92658
1 6.58701 16.5822 30.2463
1 13.3199 8.96157 7.97887
1 22.3553 2.61607 7.57933
1 28.697 3.41423 23.3556
1 11.5038 7.23798 25.4006
1 29.9882 25.32 25.6343
1 17.7622 9.75778 28.9196
1 23.0744 7.05341 17.9893
1 9.02296 21.5907 7.55255
1 8.93671 13.5127 1.58232
1 16.6348 22.0013 30.2228
1 23.5333 28.2417 1.7022
1 7.51748 2.76872 28.8436
1 14.269 28.2639 14.2268
1 6.9862 27.0022 17.9984
1 20.7248 28.916 10.5605
1 6.9318 4.11724 28.8203
1 10.3055 19.5503 5.45804
1 6.39509 8.47867 13.95
1 27.6083 14.2684 29.7488
1 6.76628 21.8866 5.54316
1 29.9115 24.4382 1.58125
1 24.3228 2.80873 9.39032
1 7.69724 15.7052 4.08038
1 4.22328 28.1395 13.0218
1 6.9143 21.9023 27.412
1 20.5185 16.2563 17.2416
1 25.291 15.4636 30.2272
1 22.3252 15.5243 21.7798
1 18.5369 7.46845 18.9352
1 18.5704 10.9505 13.1794
1 15.3138 14.1234 21.1738
1 7.64667 7.24931 26.5429
1 12.4772 14.0468 7.83282
1 22.3723 27.737 15.3374
1 23.0916 17.5181 8.70965
1 12.103 8.56208 5.89381
1 27.8112 17.9041 1.51727
1 28.8081 14.048 27.2952
1 7.66689 5.00063 22.9988
1 8.00928 16.4219 22.7918
1 9.49882 21.8957 11.671
1 4.30052 6.01849 13.4116
1 16.2837 8.2613 4.71452
1 6.43687 18.3526 7.409
1 14.4955 2.05854 21.9995
1 16.0642 15.1214 1.32023
1 29.0915 22.0201 4.01745
1 25.6936 30.1477 22.6903
1 19.4722 11.1748 14.3297
1 14.9464 5.99491 4.26188
1 22.3864 29.4644 8.12657
1 16.9662 21.3119 25.3145
1 10.4568 10.685 13.7226
1 18.9132 21.3441 10.5632
1 13.5491 24.6109 20.9217
1 2.23281 21.0854 10.651
1 12.3514 3.44833 28.5843
1 22.7637 23.715 10.6442
1 20.3658 20.0858 7.70445
1 3.8081 16.4299 7.70632
1 14.2995 12.0552 5.17442
1 29.3712 7.63697 27.3991
1 0.485491 26.0818 27.8549
1 7.47454 16.9154 19.4667
1 30.2606 20.7116 27.8862
1 10.9017 14.3533 7.22787
1 4.66536 2.72888 23.0365
1 1.63013 1.7159 27.929
1 8.53901 13.8489 24.1807
1 17.7173 20.3557 3.27057
1 15.6469 12.4716 14.2697
1 2.60095 30.1653 21.3759
1 12.8067 2.30581 13.5455
1 5.35213 10.7179 14.4488
1 12.695 20.6074 27.0949
1 9.43899 6.7136 8.85307
1 26.4928 19.1933 28.566
1 2.98185 10.2547 22.7731
1 20.6374 25.3668 7.15248
1 13.6665 8.62593 20.4949
1 3.21122 22.6289 13.3417
1 6.27196 8.27415 11.5677
1 12.5392 22.1709 28.7455
1 9.1579 12.8965 13.3463
1 16.8426 9.9308 6.37168
1 29.8501 11.6304 28.083
1 27.4096 26.7015 28.9759
1 11.5816 29.298 6.04808
1 13.2284 19.3339 28.2191
1 26.6671 8.03102 15.9022
1 5.70233 24.3433 11.5087
1 21.0789 17.984 11.1788
1 27.6053 2.2192 17.7939
1 4.18138 4.69081 3.69999
1 21.1092 17.8501 19.6704
1 10.3397 29.0907 1.62748
1 3.54143 23.8599 29.1677
1 9.1643 19.8332 2.38154
1 17.1805 23.2968 11.6804
1 1.78202 7.20505 18.75
1 25.4496 11.0458 6.33743
1 19.7607 30.1929 5.62789
1 26.0952 11.7161 26.5262
1 11.8671 11.8973 15.1839
1 12.3438 0.905972 15.362
1 16.2953 0.658707 11.6118
1 4.54898 4.61674 29.8483
1 13.549 4.75663 10.3492
1 1.49294 11.551 11.6365
1 3.37028 22.4098 18.7187
1 20.5519 12.9297 20.9779
1 16.4279 2.70933 6.46375
1 16.0746 9.97548 5.17838
1 28.6492 15.1339 13.9865
1 15.8153 7.86094 24.0259
1 8.94891 12.3778 28.9903
1 7.4534 10.5747 24.9835
1 1.47399 24.8165 29.8831
1 12.209 21.8465 27.4317
1 15.7312 1.11954 4.40819
1 4.21975 19.3054 10.3434
1 10.3027 26.1229 25.8388
1 24.4071 12.8832 28.9255
1 14.4042 5.63967 9.91168
1 6.62525 2.98949 24.6175
1 22.87 14.2219 14.0303
1 16.0543 8.98298 15.6454
1 5.50764 26.486 27.4458
1 16.2503 21.9876 9.65191
1 1.8262 23.5922 27.54
1 4.14876 17.0936 11.9418
1 24.7115 5.70027 25.1438
1 20.3196 7.06725 6.18327
1 23.6787 15.6 26.4107
1 7.62738 5.94156 11.3669
1 20.1747 24.3803 22.759
1 26.9873 3.89394 29.4009
1 18.9092 16.841 1.19247
1 1.15135 15.0296 1.15598
1 29.443 28.2488 16.0567
1 15.9228 1.69742 22.3878
1 1.16515 8.092 2.39387
1 12.4764 18.1716 18.9684
1 9.96781 12.6541 4.37221
1 30.303 3.89254 0.965732
1 27.7001 16.9335 23.1495
1 30.0723 23.1585 1.13435
1 0.514612 2.58309 20.725
1 7.50978 5.48933 6.6237
1 12.1523 10.5938 15.9036
1 30.0088 17.741 26.1248
1 21.0717 27.7967 7.76989
1 7.75819 28.4179 4.31875
1 12.5306 27.598 16.1343
1 21.9457 10.7823 28.0601
1 24.815 20.0318 29.9943
1 23.1864 19.0484 25.1996
1 22.2283 11.14 5.11324
1 23.6086 16.7417 29.061
1 2.69298 8.43676 14.6963
1 22.234 16.3765 16.6516
1 4.38395 9.75195 12.211
1 30.0196 12.031 6.97926
1 1.94496 4.57758 2.52891
1 0.377128 27.4685 2.44975
1 10.0035 17.1613 14.4115
1 24.6948 13.7875 21.1038
1 28.6778 17.9723 5.1476
1 7.5656 7.24388 21.6918
1 19.6807 2.05544 17.7596
1 27.251 9.8472 7.45508
1 11.1231 13.0386 24.0515
1 23.5317 26.9308 27.0884
1 8.93338 19.6478 17.0306
1 3.26503 23.7627 14.2015
1 24.1945 11.0485 27.1783
1 21.5029 9.40087 20.4453
1 3.63082 17.7754 10.6857
1 30.1843 3.00882 18.1755
1 15.9817 16.2593 13.5195
1 19.866 1.65548 24.3956
1 26.5771 4.78357 4.8857
1 26.5715 23.8812 4.55948
1 9.77226 13.1681 15.1867
1 18.4141 7.26964 26.4568
1 7.67147 13.8272 20.2128
1 18.6527 10.3378 11.7368
1 22.1674 4.75081 26.9018
1 29.667 30.0115 26.9269
1 4.45608 6.75236 9.6105
1 18.9666 8.3464 13.9135
1 25.6609 27.3762 24.1328
1 29.4601 5.75543 2.68377
1 27.9085 13.2215 14.555
1 0.353757 10.54 22.0428
1 2.82612 22.9777 2.8426
1 7.09993 24.2833 2.80502
1 19.2845 2.85404 23.5278
1 2.48707 27.2894 21.9893
1 5.15744 30.0279 29.3035
1 1.6425 23.3173 17.974
1 29.7486 23.3378 4.79021
1 28.5447 1.27829 29.2163
1 16.8993 9.43946 27.7848
1 17.3861 30.2934 13.7858
1 15.9904 16.8532 12.1265
1 9.0447 9.56036 2.291
1 10.1048 9.72097 18.9991
1 10.5812 9.33117 23.5999
1 20.9745 24.7332 28.0595
1 1.15201 5.03505 13.7774
1 10.9874 19.2084 3.34616
1 17.7365 5.1387 25.2547
1 15.1021 5.72554 0.768785
1 24.2852 5.86058 10.6122
1 18.5137 18.1116 15.2565
1 11.0318 3.50284 12.1475
1 24.9043 6.10335 22.7858
1 24.6247 18.9976 8.48044
1 17.9693 2.67478 4.29253
1 19.2335 4.57765 3.55706
1 5.62984 12.2063 23.2496
1 21.7365 5.96504 0.813583
1 4.44981 25.9439 13.6354
1 9.15631 6.6619 11.5013
1 20.2689 16.7377 19.9598
1 28.9337 8.11905 28.9783
1 4.18424 26.9948 20.3234
1 4.48032 1.85925 16.6057
1 19.6412 1.65404 12.7586
1 0.570762 23.0463 22.0119
1 8.12872 4.95011 25.9423
1 23.3256 1.46304 7.54438
1 23.5448 24.6776 27.5948
1 23.2234 10.6395 24.2381
1 20.9965 19.7321 18.4246
1 2.41757 11.774 19.5727
1 25.8019 21.2635 27.0755
1 16.6457 2.14343 3.81594
1 28.206 24.9563 3.46742
1 10.9899 2.39954 5.44543
1 18.7777 8.73165 0.782221
1 27.3297 6.14031 4.78806
1 24.8495 6.84959 20.4042
1 2.64499 28.1486 28.6711
1 28.2109 15.2191 11.2734
1 7.58363 1.90349 19.3165
1 13.0523 8.74814 18.1946
1 27.0156 6.9761 21.804
1 18.8293 10.9254 15.5807
1 15.2845 13.9539 27.7612
1 23.5435 4.3209 30.0539
1 21.9722 20.6848 22.8086
1 2.83488 11.4618 23.7667
1 17.5093 14.8389 12.8813
1 0.28129 0.480954 13.5222
1 1.55838 1.69081 6.51203
1 29.0055 15.9059 30.1567
1 17.1443 20.641 28.442
1 11.9897 27.132 20.2468
1 14.5361 3.72707 3.55483
1 18.1402 17.1773 13.3188
1 6.92239 8.6016 23.6709
1 14.4037 10.2242 14.5648
1 21.7427 15.0235 28.2309
1 6.16586 21.4073 13.7097
1 26.154 18.4338 20.5023
1 9.73395 7.33576 18.5919
1 0.92458 5.00243 21.7276
1 13.8821 12.0458 16.9625
1 18.3732 1.95734 12.0339
1 16.7595 11.1363 22.9233
1 20.9695 27.69 18.5563
1 5.05019 20.8062 4.10799
1 24.987 11.4998 28.3318
1 9.12839 17.81 13.4515
1 8.46977 11.0534 5.73057
1 18.4705 0.947669 2.60945
1 4.47134 4.9355 15.3358
1 12.3066 14.3472 11.7764
1 20.3255 1.44779 29.7665
1 9.61986 18.3526 22.9821
1 10.0821 15.556 14.3451
1 13.8602 15.579 19.6707
1 14.2269 11.6583 8.19947
1 13.0393 2.66154 11.0366
1 22.1468 3.27791 30.2698
1 26.6691 13.9714 26.0502
1 6.62366 24.8948 6.78296
1 26.506 27.7246 6.78573
1 15.4732 6.39444 26.0376
1 7.51204 20.7045 2.81822
1 8.50952 29.7809 30.0802
1 9.32248 24.6303 7.75893
1 11.4621 25.8432 6.82187
1 3.08899 20.4338 26.6571
1 28.3108 10.3193 26.1106
1 14.7477 11.3807 12.2057
1 23.3188 29.8358 29.2071
1 27.2447 7.03964 7.13039
1 3.59656 25.4623 16.9321
1 22.8612 20.1767 27.6247
1 7.73511 13.7475 9.99862
1 23.157 5.63564 18.5226
1 21.8148 23.39 13.3604
1 22.1713 15.3786 14.5681
1 29.033 9.64329 1.69099
1 17.9706 24.6295 11.5422
1 12.9648 28.1922 8.11227
1 21.6337 5.80019 29.5833
1 10.1589 23.4331 28.9926
1 5.02955 2.14472 20.0116
1 6.83407 9.70663 22.7036
1 24.3938 3.46213 18.5786
1 4.64203 16.6437 16.0707
1 6.49134 10.4932 2.80407
1 29.7887 6.5497 6.81779
1 6.48515 17.6706 15.0747
1 25.4608 28.76 18.4823
1 20.0583 9.9978 11.7058
1 13.1136 10.2809 3.47194
1 26.9747 27.5937 19.5236
1 11.7494 14.5516 28.0736
1 4.57484 21.3078 21.0433
1 13.7988 17.3555 11.4324
1 2.98273 6.60718 3.35291
1 13.5325 14.9558 7.40344
1 4.54979 26.7796 4.74853
1 17.6681 1.81956 25.7057
1 29.3478 3.20241 25.5686
1 10.1059 10.0478 26.0438
1 27.5039 7.59061 1.57951
1 4.18523 0.635636 17.1233
1 29.6926 2.89301 8.49899
1 24.1348 8.942 13.4284
1 5.98435 17.1754 24.1506
1 17.4989 4.48793 18.0826
1 10.9567 19.9015 26.7374
1 15.5589 12.1932 29.2813
1 24.1054 16.9535 20.6481
1 11.1747 9.39472 16.0399
1 29.2499 20.2754 8.15568
1 10.4708 4.95407 28.9676
1 29.4836 26.4905 8.59213
1 13.7726 11.9125 1.38399
1 4.16201 3.23747 1.73245
1 9.40158 11.7965 1.569
1 1.5419 15.0477 8.78818
1 15.3496 22.0213 23.7323
1 17.2703 14.5177 22.0176
1 14.6101 27.4545 17.8632
1 16.5585 4.11811 22.694
1 12.0269 30.0868 23.8137
1 19.6574 7.48038 21.1125
1 17.8189 19.7313 7.09299
1 19.2417 22.5274 6.29815
1 19.5221 21.7786 11.6112
1 19.3929 29.5613 23.5177
1 0.322532 13.9965 5.83987
1 25.3016 23.7382 10.7632
1 8.53131 25.7921 16.3889
1 21.9916 14.9629 20.635
1 5.25729 1.16061 6.01386
1 22.227 18.4964 20.2216
1 5.25713 20.8603 9.1261
1 11.0446 3.65709 20.8606
1 0.382473 20.8582 29.1957
1 22.5244 14.0132 25.1983
1 27.0153 21.6424 29.3734
1 8.6478 4.42544 27.4947
1 24.513 28.5488 17.5635
1 12.7227 28.6545 11.565
1 8.84726 10.0059 19.6834
1 8.22796 3.65734 17.2347
1 22.1777 4.39103 16.4234
1 28.122 15.4606 20.5483
1 14.3441 2.81205 13.9088
1 26.3789 3.7777 5.92741
1 6.80438 28.2456 23.3788
1 11.0346 28.7258 27.2896
1 6.55272 28.2073 11.4278
1 1.89354 25.0308 21.3383
1 13.4826 4.47962 27.5395
1 11.1006 25.6048 22.8364
1 19.0256 16.9195 23.845
1 5.68242 12.8535 12.9134
1 17.9116 15.95 18.4248
1 15.7598 25.9781 22.3852
1 26.1301 29.5487 12.9924
1 23.3196 2.23706 5.08982
1 4.97476 18.3341 25.7827
1 11.1826 24.4466 6.40172
1 21.503 8.00584 6.38465
1 3.78337 17.3813 19.4162
1 16.9267 15.8029 22.1442
1 28.0503 22.1599 21.7927
1 14.5401 24.9209 26.8555
1 7.17485 28.0799 9.0466
1 17.248 0.811088 8.01162
1 7.42787 20.8593 29.631
1 7.94903 10.2366 10.8213
1 13.717 18.0511 19.4403
1 8.41894 26.5937 7.31411
1 25.9692 26.213 3.10825
1 11.7998 25.6408 24.2825
1 4.81361 11.8463 24.8619
1 4.09491 24.2467 5.15028
1 2.05678 28.9818 26.712
1 20.684 13.2718 12.603
1 4.23397 22.8775 29.9347
1 13.7784 11.7275 13.1123
1 0.361619 1.06241 20.1573
1 26.446 26.2423 19.866
1 19.393 2.26856 20.6412
1 9.92241 26.5878 22.6971
1 22.699 23.7108 24.4527
1 22.2707 10.7625 2.43397
1 29.8449 29.8334 2.72399
1 12.6401 5.16337 4.00755
1 25.5707 17.0866 14.9942
1 6.57918 17.9423 27.8245
1 24.1914 23.3688 6.64419
1 1.36925 25.0453 3.97889
1 7.47861 14.9976 27.1214
1 8.48368 5.8725 8.77533
1 29.1404 5.89694 1.22071
1 21.429 12.921 18.3352
1 17.2433 29.5538 1.13956
1 14.2541 5.92547 26.0297
1 17.3928 22.6537 13.3429
1 0.760802 10.3965 10.9001
1 5.28308 4.22456 9.30796
1 23.9703 26.0464 17.4492
1 3.1911 8.84094 5.64915
1 24.381 25.1604 14.0729
1 2.56789 1.60661 18.9369
1 12.5142 3.19544 12.3264
1 1.73225 10.8585 14.1553
1 19.3601 28.9536 25.8337
1 20.6589 6.78951 11.3482
1 6.11319 24.9518 3.87347
1 8.84535 26.3136 0.930773
1 4.72083 27.718 9.87766
1 6.24314 14.7935 24.4265
1 14.0525 22.44 17.2204
1 16.9341 27.9641 6.00457
1 10.0739 22.4006 7.31553
1 11.3459 0.471784 7.96607
1 3.81459 4.2176 26.7123
1 14.1773 16.1039 8.0067
1 19.315 3.41521 10.2573
1 20.3186 19.6692 11.0387
1 6.98826 12.6908 20.9289
1 3.35527 19.4122 15.0203
1 28.7931 27.3686 4.33757
1 9.04176 22.5832 25.4524
1 17.5567 25.2517 20.2703
1 21.7545 3.11435 19.7015
1 22.3889 18.5117 21.7158
1 24.9347 27.0093 9.26833
1 21.3176 28.0145 26.638
1 5.13853 15.7825 18.4875
1 21.5358 26.2464 22.5538
1 18.3404 5.54184 17.2815
1 1.12383 2.16838 24.2113
1 9.38782 8.84363 9.79822
1 28.5467 26.5678 13.7675
1 0.376978 20.491 14.3825
1 28.164 16.084 26.0285
1 26.2606 7.91236 27.3354
1 7.51117 17.4127 5.59244
1 1.42546 20.578 8.69256
1 11.972 11.4594 18.5623
1 18.0368 13.3937 14.9618
1 21.1436 24.4404 3.53632
1 8.85996 22.8217 3.79713
1 21.6184 21.4736 2.41928
1 14.8089 1.21813 9.79744
1 25.2939 21.7512 13.3946
1 27.1042 20.0903 15.8057
1 10.5997 25.3605 18.0751
1 10.8584 3.04692 8.2873
1 12.3895 19.848 23.5352
1 0.680156 7.65499 24.2645