4096
Atoms. Timestep: 1240
1 20.3723 10.5794 12.5143
1 13.9218 22.9074 19.9897
1 8.80582 4.57043 2.32268
1 22.1219 5.23337 24.4516
1 0.172846 28.1673 1.51534
1 9.92115 17.0942 18.2814
1 15.7381 5.24882 5.47017
1 22.8047 1.88696 12.1558
1 19 5.70325 8.00034
1 21.6696 15.5734 1.695
1 24.3481 7.39605 21.1385
1 7.98851 2.81068 13.6623
1 10.5288 27.0644 15.7916
1 21.687 28.8637 1.35278
1 22.4448 24.7202 19.7548
1 0.152962 0.261389 24.5874
1 0.471091 29.068 15.5855
1 10.2486 19.7806 27.5244
1 3.72126 14.4336 6.40027
1 2.43434 28.445 14.7601
1 12.6448 26.4167 9.13679
1 15.823 26.2134 6.39319
1 13.0829 6.05511 15.9042
1 8.29359 20.3557 25.4152
1 10.7913 5.12657 11.1974
1 28.4933 12.5994 11.8576
1 18.4538 29.8812 13.807
1 6.36002 5.54497 7.06754
1 23.144 12.6346 29.1095
1 7.93954 22.9054 25.9266
1 9.20035 20.3771 18.614
1 1.6565 17.9134 29.5115
1 25.7195 11.9313 11.5075
1 14.0299 13.4429 17.414
1 6.62573 18.9988 7.91582
1 7.10469 24.8276 17.3856
1 21.3078 4.38619 9.60439
1 17.7499 27.6854 25.3853
1 6.81223 18.3508 4.54877
1 24.8312 7.33664 22.4764
1 17.5376 8.893 19.2851
1 27.9663 14.4873 4.91366
1 12.789 15.0955 14.6831
1 18.8692 12.1633 23.7207
1 18.5151 30.1764 26.9881
1 9.20288 0.705886 19.6315
1 8.76619 4.93885 16.824
1 16.1297 7.282 27.2233
1 9.48715 26.5475 3.02158
1 19.8151 4.4044 10.2483
1 14.4191 2.53472 5.23462
1 20.464 4.49805 12.847
1 9.87295 23.062 14.8678
1 12.8384 11.7293 8.11415
1 6.24447 0.327041 27.0818
1 20.1249 8.46842 18.4781
1 1.38084 10.8285 12.202
1 10.2104 25.4291 0.581111
1 6.36937 29.3413 28.258
1 0.158165 14.934 25.5241
1 0.712674 2.23822 16.4579
1 5.36757 29.3535 0.330917
1 17.3398 12.5375 6.99834
1 7.6332 13.9654 0.483717
1 12.0075 1.88115 4.7742
1 21.894 21.536 13.0328
1 14.6202 14.1286 28.0585
1 18.8187 19.287 11.568
1 28.6488 4.09417 21.6668
1 20.0002 7.79323 14.9075
1 2.75783 18.7293 22.6301
1 23.1552 29.5721 7.69984
1 2.17209 5.38603 27.6895
1 11.9426 1.03682 15.7222
1 24.5384 3.52543 11.122
1 22.9186 27.2701 27.7064
1 5.80673 0.316906 10.3131
1 3.02799 23.8752 21.4679
1 3.11132 16.0969 27.5106
1 25.9823 26.3629 24.1538
1 22.1015 2.47184 1.97009
1 15.7564 15.199 24.5447
1 18.8672 4.75413 14.8267
1 27.7195 22.7366 27.9146
1 24.1482 6.94181 6.44642
1 4.99015 24.4438 7.31487
1 18.4424 11.7718 28.4547
1 24.8443 2.21978 5.31194
1 15.9335 3.26153 23.1253
1 27.9064 14.8205 25.9506
1 20.5267 23.8818 8.94336
1 11.6729 6.90831 6.81413
1 24.8285 28.7201 25.0662
1 27.9087 17.1309 11.6705
1 28.2933 20.8103 0.992041
1 14.9918 23.7601 12.2441
1 26.0233 21.1897 7.07619
1 4.83699 9.97986 2.07728
1 24.2936 1.7629 19.6804
1 8.91786 17.393 29.4179
1 9.00641 12.2875 7.93943
1 0.90947 25.0822 17.709
1 21.6879 0.251019 17.5578
1 14.8586 4.94317 4.42894
1 22.0441 16.5574 12.3352
1 30.3316 16.9919 6.21563
1 3.08955 10.5002 10.7268
1 8.40704 27.873 24.4201
1 1.27215 27.7503 17.8175
1 11.9502 23.7627 21.4188
1 7.27882 19.5895 5.19411
1 17.0254 17.3204 0.979378
1 23.3738 2.45017 13.7633
1 19.7558 27.5785 3.71154
1 0.975881 14.1532 18.1881
1 22.3476 12.7598 14.352
1 8.1121 0.198306 4.80224
1 29.1208 25.0742 7.98171
1 6.69354 22.6303 2.15264
1 22.7035 10.6991 11.066
1 25.5775 3.44793 20.9174
1 28.0688 21.0958 5.73911
1 12.5847 1.30646 6.80843
1 20.1591 27.3295 18.4417
1 2.19893 13.4057 26.5045
1 10.5467 3.15277 19.9257
1 27.4868 13.8711 6.07147
1 14.111 14.1142 16.2606
1 12.5426 18.5266 13.031
1 28.9436 24.52 14.4855
1 28.8365 15.0521 15.7715
1 10.3936 5.61352 13.6685
1 8.65087 23.0387 16.4309
1 7.43307 4.70638 27.9769
1 2.5848 19.9021 11.3773
1 20.5106 4.96252 24.0103
1 15.4983 13.2355 5.57581
1 27.8733 9.85403 17.1463
1 11.9212 18.1172 19.2594
1 27.6558 25.6834 10.1683
1 24.5371 2.38685 0.166801
1 2.72695 25.8548 29.1043
1 19.3512 0.953317 27.9569
1 12.2705 1.82666 9.46561
1 21.9741 23.9153 6.27309
1 21.4407 23.825 21.0558
1 3.73243 13.3475 15.6507
1 25.1871 8.52035 3.17318
1 20.4927 7.02682 9.3386
1 18.2083 26.146 13.0801
1 30.031 23.1138 22.4175
1 26.4029 27.7771 21.1391
1 19.913 9.10911 3.71799
1 22.2462 30.3081 3.99615
1 5.22223 25.1036 13.9808
1 26.4558 4.21836 16.1899
1 8.67698 18.6019 10.5152
1 14.6472 3.51838 28.4436
1 13.2619 1.38511 28.6453
1 3.8275 14.6872 24.5616
1 21.2392 25.3241 1.64388
1 10.1104 25.2626 17.4983
1 29.8637 17.4958 12.6246
1 15.3796 8.48953 27.9068
1 19.0645 4.52821 13.3263
1 26.9342 9.52995 19.3788
1 13.5945 4.53714 7.94861
1 19.9873 10.7352 18.3563
1 14.8828 5.06085 16.8412
1 17.931 11.6039 26.2369
1 4.91988 24.7965 2.71711
1 8.94012 6.43578 22.8197
1 11.747 15.5425 21.8909
1 23.5636 6.75726 17.8175
1 26.2785 6.39356 12.6494
1 15.7503 18.7303 17.1072
1 0.273194 20.2276 8.5897
1 4.94083 7.39479 3.25833
1 20.6002 18.0186 18.2903
1 6.44772 14.0514 7.76548
1 12.9485 2.53874 10.5671
1 12.4367 6.86839 22.2538
1 9.75432 14.8121 19.1843
1 6.69491 2.59888 26.3226
1 26.7702 23.3031 8.05137
1 2.78042 6.11827 11.0823
1 20.5694 5.89716 3.09546
1 5.89073 21.9638 8.49816
1 15.7585 2.74618 13.3255
1 20.2134 0.823357 1.47107
1 18.8863 16.989 9.97318
1 1.98884 5.59984 1.96831
1 25.3245 13.4273 24.408
1 11.2856 15.9742 4.22938
1 16.541 22.8665 26.4333
1 4.61314 0.735205 10.5139
1 29.0271 15.1887 7.91713
1 25.0924 16.171 17.4044
1 3.99823 6.3149 0.767408
1 13.9409 19.877 0.57074
1 29.032 27.2268 20.4338
1 28.395 1.32981 7.92798
1 21.0561 22.7729 3.10767
1 16.2676 6.18545 9.84855
1 0.241093 24.2048 24.4081
1 13.5863 3.32742 14.164
1 25.5005 25.36 23.3288
1 29.7436 22.3747 29.4399
1 25.8593 17.4191 20.2888
1 2.39256 4.46203 19.8249
1 20.9373 7.39864 10.6041
1 19.6289 1.63873 30.388
1 17.6472 26.1579 8.61941
1 13.4516 2.57972 20.4481
1 12.1442 2.52312 11.6941
1 6.97221 5.47803 15.0846
1 24.2082 16.7736 23.1937
1 2.95437 0.959195 21.664
1 29.3007 11.5917 0.489223
1 12.031 17.8926 1.56168
1 23.9011 14.82 9.23991
1 4.01886 12.8658 18.0708
1 16.645 5.03313 19.0461
1 12.0963 18.2066 27.7673
1 21.8762 12.5548 5.26826
1 25.9168 13.2717 21.3568
1 21.7124 15.0646 5.0328
1 27.0229 30.1752 3.47269
1 11.4415 12.4074 30.1623
1 19.0978 26.9488 27.6487
1 7.68547 26.8774 23.7856
1 8.26062 12.6441 12.8894
1 13.4325 19.5735 13.4053
1 2.24893 7.21156 8.57799
1 6.04028 1.15896 17.4689
1 25.3095 20.2478 17.7737
1 4.11169 4.4889 8.05038
1 1.50024 10.1142 16.5867
1 21.7687 8.42618 28.2459
1 0.576015 18.357 6.96128
1 8.97678 29.5897 26.1083
1 18.3561 6.01027 24.112
1 19.282 8.19733 6.05677
1 10.7357 25.5857 29.03
1 21.8502 14.7123 6.74243
1 10.4519 18.9502 6.93718
1 4.19954 15.6125 12.1021
1 17.0052 26.9933 4.41018
1 24.8804 25.0752 26.8691
1 20.4068 21.6086 13.3284
1 4.92123 14.0706 4.50847
1 10.1683 8.2993 12.7651
1 17.2524 13.8132 2.31885
1 17.6124 12.3079 27.4712
1 8.36363 12.3082 10.3558
1 26.6865 22.9443 21.3223
1 21.3567 3.90948 8.31064
1 0.885397 6.94126 26.2438
1 3.63652 27.5259 12.4911
1 0.897179 29.8965 13.2745
1 11.0352 9.95828 28.9276
1 10.4247 29.4173 28.6621
1 24.529 15.845 3.41192
1 2.46215 14.4873 22.6084
1 4.74328 12.4152 14.9286
1 12.3879 25.2605 14.6561
1 10.5333 0.905529 23.4938
1 8.82615 11.5861 29.4946
1 27.4744 4.4744 9.0364
1 26.8154 28.8751 9.24978
1 7.61428 6.70216 8.98444
1 11.3615 9.05093 9.5646
1 20.2953 10.8593 19.7222
1 0.439709 11.3753 3.77008
1 28.5772 17.9822 24.9319
1 6.08539 13.86 30.2403
1 25.923 2.03918 6.14673
1 9.63196 0.86041 15.1911
1 4.73456 22.157 23.6413
1 4.6397 3.96266 17.077
1 13.912 14.8153 12.3688
1 1.24691 26.3017 20.1994
1 13.3865 7.3217 23.2152
1 22.8841 25.9767 5.64125
1 25.5204 4.06515 17.457
1 11.7882 29.7561 29.1321
1 16.6114 25.9495 17.4515
1 0.185232 20.7471 2.53807
1 17.4435 1.79485 6.43269
1 11.3165 13.8971 10.9771
1 9.26827 13.973 12.8032
1 19.8179 26.324 11.3209
1 2.76903 18.8886 28.1715
1 14.964 16.3222 14.0112
1 0.249378 18.3043 27.4462
1 4.96872 17.5925 16.1208
1 18.0543 6.90549 28.5484
1 9.00542 23.7018 28.6077
1 14.3515 19.5957 10.2603
1 22.2677 22.5186 6.61818
1 20.9531 12.5575 17.5204
1 22.7707 5.78511 23.2609
1 25.0458 11.0688 2.24477
1 8.55956 14.6623 18.3385
1 10.1665 20.8556 4.60706
1 25.8763 29.6682 4.20054
1 10.0859 21.7594 26.501
1 27.0123 21.7211 28.231
1 13.1321 23.6422 23.392
1 18.2474 0.979492 14.243
1 25.2087 14.0594 13.488
1 25.1189 6.90639 7.48786
1 22.2957 1.74242 21.6185
1 23.3514 14.4148 11.6439
1 20.436 5.27385 17.8921
1 6.91402 1.78267 27.4352
1 21.6592 1.76981 19.8252
1 10.2914 3.44321 23.1069
1 19.6688 26.4226 20.3231
1 25.8543 13.7055 27.4854
1 17.5234 18.4494 11.5029
1 22.1402 7.25709 18.0098
1 4.38912 13.2965 20.7459
1 11.8488 0.422624 13.574
1 10.0103 20.5808 16.0791
1 12.6449 21.7923 7.68639
1 6.89266 22.4976 14.2953
1 12.3116 18.2814 22.3174
1 5.36036 15.7953 1.42803
1 6.61004 6.99517 18.8351
1 22.4295 25.1468 12.6127
1 24.38 3.07206 20.8087
1 13.2499 5.14318 18.5847
1 27.4401 16.2351 2.21024
1 19.2163 2.81463 2.26268
1 2.86236 4.14187 29.8811
1 18.2316 3.25614 12.9442
1 20.3064 8.59012 28.0474
1 20.7358 11.4107 2.82884
1 28.6467 22.0285 1.60539
1 30.0881 5.35431 22.3382
1 20.0302 21.0473 24.8286
1 23.8051 20.6573 9.9502
1 25.6586 6.57091 15.0023
1 2.8326 24.937 16.4785
1 2.14609 5.02693 15.0585
1 1.26121 14.5718 24.8235
1 11.3218 19.9739 19.9697
1 28.0771 9.28783 11.3577
1 7.71359 11.9635 11.5589
1 15.3667 7.4443 11.4805
1 14.5292 24.0895 28.3458
1 6.48595 15.9719 19.7506
1 13.7939 5.62545 25.5216
1 11.1965 2.72358 1.07869
1 3.44879 1.72786 20.4165
1 28.1226 25.9216 18.372
1 18.4064 20.7964 19.3809
1 9.69875 29.9819 29.5623
1 15.7144 6.84238 7.52508
1 3.9606 15.28 16.863
1 23.5077 24.935 26.3428
1 18.7239 25.2614 12.1396
1 23.7364 0.806356 24.5237
1 10.0693 6.83251 14.2456
1 11.5078 19.8743 29.678
1 6.50098 29.7714 23.2144
1 20.8428 5.07287 6.35005
1 13.9095 26.932 20.6724
1 11.7305 24.4973 2.43142
1 2.36193 4.14903 16.272
1 22.306 22.5737 0.260717
1 11.8343 5.0359 10.188
1 27.8505 10.5632 21.6828
1 8.82548 16.3162 11.771
1 11.3612 0.157986 0.278224
1 21.9539 15.6664 22.0841
1 23.5344 20.331 28.1326
1 22.6661 11.276 6.98254
1 8.03579 19.9648 28.6829
1 24.8197 2.78438 14.4019
1 4.91116 7.40537 26.1563
1 1.57385 7.36242 3.77332
1 27.8904 26.1537 22.2773
1 18.8988 27.4265 10.354
1 8.30221 5.31581 19.0942
1 27.3736 2.40665 4.24125
1 7.31696 4.54163 26.243
1 4.70557 10.7241 10.8847
1 18.2833 29.236 17.5208
1 20.4729 19.2957 18.5635
1 1.03365 13.6559 15.3563
1 18.7054 3.74913 19.6516
1 23.5061 23.4265 21.5958
1 9.32473 10.3032 8.92161
1 13.5507 25.3687 3.71605
1 23.9041 20.4611 24.9579
1 0.17409 0.922461 13.7728
1 20.3066 25.5352 27.9549
1 20.2665 16.5389 24.5509
1 7.61943 29.2126 24.7926
1 18.4314 10.5242 1.95311
1 14.6436 20.4548 27.6856
1 28.5213 11.3054 14.4567
1 1.75871 14.4429 2.20705
1 4.37308 3.12326 25.9502
1 2.89962 30.3738 18.5081
1 30.0252 2.52731 19.6683
1 17.1773 8.28428 16.9717
1 4.09229 18.8966 14.0064
1 5.60144 23.4748 5.37555
1 1.26355 10.8066 1.33907
1 30.3471 13.6254 22.7664
1 19.3491 2.59285 4.64396
1 17.2883 10.6838 10.4025
1 23.5014 29.3383 16.7453
1 8.81074 3.60003 23.3904
1 9.60411 27.6268 23.5579
1 6.7053 6.04273 24.2542
1 26.6046 10.5597 4.39038
1 13.3519 27.1298 5.36113
1 1.28364 2.70985 1.68008
1 9.41146 28.1013 4.99916
1 1.69187 4.17558 28.8855
1 23.318 18.7076 7.04259
1 24.4112 28.1131 5.20959
1 17.2575 12.1805 0.378274
1 15.5298 22.5228 20.6977
1 17.3688 27.2214 12.447
1 9.09319 1.09716 2.66696
1 8.77299 21.1255 0.978467
1 18.5563 17.1488 3.05652
1 24.1071 24.322 30.1952
1 24.3337 10.6815 4.73536
1 15.9536 18.4141 5.02674
1 11.5793 29.477 25.6071
1 16.4612 14.7279 15.5381
1 9.46141 12.0772 20.6024
1 5.10948 17.5556 20.9783
1 2.2749 3.83764 22.7465
1 2.58525 18.1835 10.0447
1 19.7334 9.45534 16.166
1 4.78182 13.5368 2.19604
1 8.27005 29.0546 5.06276
1 8.89504 12.7659 28.4875
1 16.1058 19.6205 14.9633
1 25.6426 17.0288 23.9048
1 2.93839 0.260995 12.4775
1 5.05706 16.2316 5.10786
1 19.3884 24.3626 27.9225
1 14.1135 29.2947 21.2355
1 29.8404 2.25658 26.1861
1 10.0578 6.22049 25.035
1 16.9948 7.39046 5.59668
1 30.0808 20.2891 12.6839
1 7.31583 14.4604 11.2645
1 12.6145 22.8493 0.167412
1 12.3884 11.4581 5.02654
1 21.4824 23.5761 23.8214
1 7.82 2.58123 22.6789
1 5.24713 30.0795 25.316
1 8.42831 4.84997 20.6422
1 4.07704 12.6394 22.0082
1 21.5618 10.5346 25.3936
1 15.3488 9.39143 29.0859
1 3.85838 17.5527 10.1475
1 20.5391 4.1525 27.1181
1 23.0947 1.57646 8.15011
1 15.0603 28.8362 11.8937
1 4.34552 0.560737 4.6002
1 3.28723 25.8435 8.67294
1 23.1167 21.6489 18.3613
1 13.0173 5.9482 0.722886
1 14.5812 12.1996 17.6894
1 14.339 17.0455 3.87586
1 19.5087 14.2902 12.5251
1 8.8821 20.6945 11.128
1 22.5844 8.34055 16.766
1 25.3064 6.56895 13.6996
1 10.5391 29.2678 10.3332
1 6.92983 12.1161 1.21305
1 20.1622 2.33339 14.4816
1 1.05197 17.4285 28.2861
1 14.8284 22.3451 13.2123
1 15.8838 23.2212 16.168
1 10.3888 17.2911 30.2538
1 13.6735 18.0536 14.9481
1 26.8651 16.358 12.3665
1 10.0112 9.66998 18.4295
1 25.5474 10.3975 12.186
1 4.22852 15.8413 18.202
1 29.7902 26.5986 28.5174
1 10.0219 23.3417 6.2567
1 9.15195 17.0882 21.0787
1 16.7667 4.40606 7.92845
1 8.79281 3.08469 29.1135
1 11.7269 6.57812 0.525207
1 21.5314 25.0287 9.17158
1 19.8516 14.2032 14.2029
1 11.8684 2.11687 28.9773
1 17.6074 12.7659 23.8051
1 14.7911 9.86146 19.042
1 23.2433 27.4134 20.977
1 23.0179 1.92071 24.7522
1 27.0962 20.2288 7.62777
1 14.382 18.9209 9.19293
1 24.0168 7.65222 1.34179
1 5.34717 30.3136 7.48149
1 2.04348 16.9453 0.553819
1 26.2806 6.9967 22.6393
1 30.3023 14.0187 0.339914
1 19.6874 8.13953 16.1906
1 14.6496 16.6051 0.354691
1 24.6515 3.92759 23.5371
1 18.1525 10.1829 26.1878
1 21.1782 14.9927 30.0158
1 14.3818 18.5227 21.1224
1 0.875728 26.8264 24.4758
1 27.3794 26.397 14.7086
1 0.545123 8.80986 18.6447
1 4.74715 28.0718 4.61953
1 13.123 10.3706 21.0279
1 22.2648 18.0963 14.3947
1 4.39008 28.9991 1.99348
1 13.5797 22.0516 10.8443
1 8.6543 29.2617 19.4512
1 12.1964 2.27842 22.2854
1 1.68984 15.1229 3.42959
1 23.0909 4.61892 7.00663
1 19.8625 0.173036 24.64
1 16.1986 16.2274 0.439524
1 18.9916 25.7957 23.2793
1 14.7534 29.3472 26.5444
1 11.1671 25.9076 10.2038
1 5.36791 8.09731 23.0839
1 19.6725 15.5773 23.4969
1 8.33012 18.7965 16.0623
1 24.4622 21.6247 24.1302
1 25.4734 23.9054 23.4021
1 25.8875 8.91693 0.872833
1 26.7956 25.726 25.1837
1 2.95308 13.0633 22.7858
1 3.92023 13.5673 12.8889
1 24.9176 6.73331 5.38161
1 23.9955 28.6416 21.1643
1 11.0692 0.923696 6.86566
1 15.1523 14.0771 10.5329
1 18.6083 22.2488 9.46569
1 15.3612 27.6116 22.3771
1 24.5189 7.01526 10.8265
1 8.01028 19.2376 26.3112
1 12.5875 15.7071 17.1079
1 24.6126 23.4648 3.55323
1 17.0565 25.2301 25.5836
1 26.6146 21.0307 25.2753
1 25.1766 24.8976 12.9193
1 13.0214 25.6844 5.05678
1 0.341809 6.60315 3.45326
1 27.8382 13.9281 28.9459
1 21.3757 4.9289 29.7212
1 26.2051 18.3458 19.25
1 7.79695 24.3891 5.06045
1 26.5114 18.0934 23.4556
1 5.03274 23.7171 10.4073
1 7.36056 16.7078 0.630438
1 2.60484 15.504 30.3405
1 3.04555 8.34991 15.7379
1 1.9885 29.6819 28.5861
1 27.6592 30.2606 29.0004
1 20.5851 12.5069 6.57388
1 2.2788 26.8165 8.10274
1 14.4797 26.2909 7.22812
1 0.502659 19.6917 19.6922
1 28.5605 10.0057 26.9531
1 12.1443 9.93026 4.30559
1 12.817 20.7115 12.4332
1 20.7404 28.6049 17.9267
1 6.68155 26.745 1.1979
1 28.9337 29.6435 19.8531
1 26.9205 9.32832 21.594
1 2.93463 13.5515 27.7713
1 13.5136 17.5258 16.3313
1 2.49541 5.63457 0.573089
1 26.807 25.3885 18.1119
1 22.9228 1.58184 27.3494
1 1.89382 4.07919 26.0572
1 9.477 14.5723 27.8988
1 8.3626 2.57443 1.06369
1 2.28651 19.9904 9.97456
1 20.2525 17.8316 8.26124
1 28.2983 18.7409 26.248
1 29.4434 1.95615 16.8498
1 9.91583 1.89623 3.44961
1 6.04407 23.3605 9.27358
1 15.7701 29.1876 21.3208
1 3.84383 19.7191 26.0088
1 27.9141 28.1916 23.8848
1 8.68239 8.1482 19.4783
1 11.3346 16.2771 11.9851
1 17.1499 26.8145 22.7091
1 4.83055 4.12252 4.74037
1 19.8523 2.2786 3.45957
1 12.2844 22.2939 21.3088
1 1.35631 26.3919 17.389
1 0.33609 9.16937 26.98
1 23.1152 29.6988 12.7155
1 0.328596 11.145 24.6893
1 21.0044 19.9146 15.9936
1 10.3121 2.68836 2.12519
1 26.0975 10.0646 1.88416
1 26.7445 22.932 0.891068
1 23.746 15.5335 23.3557
1 6.65429 24.9067 22.4139
1 20.0415 24.3843 1.57296
1 12.2893 10.7539 7.4641
1 13.0076 15.7242 24.5085
1 16.6771 1.99723 23.2282
1 11.6746 22.8276 12.3562
1 26.3316 12.8458 25.1263
1 15.8918 18.8388 20.5185
1 5.12752 22.7896 21.9609
1 25.4498 1.75602 15.1021
1 12.7366 8.53515 29.4107
1 16.1432 3.77681 21.8861
1 16.9738 6.51262 15.7293
1 23.7963 2.47703 6.08748
1 12.4494 24.9386 9.30942
1 15.8682 10.3303 19.6244
1 0.901519 20.2052 0.233216
1 17.2705 5.92546 29.4253
1 27.2849 28.4899 13.0792
1 11.5866 23.0992 2.33127
1 17.7658 23.2132 20.2611
1 26.4215 2.42486 9.91909
1 21.4931 2.18035 22.9513
1 9.9216 9.28836 2.87429
1 0.721572 5.40232 30.0904
1 28.663 3.91126 0.159172
1 8.289 15.946 9.4843
1 4.66559 27.4348 16.813
1 26.7291 14.7338 0.302991
1 19.0938 24.7706 15.0065
1 25.4492 7.58621 17.2438
1 18.4871 11.2241 6.27851
1 28.5033 20.0176 27.9629
1 14.7887 13.8529 21.0823
1 29.8556 7.16376 25.6655
1 11.2483 22.7802 18.9482
1 16.479 1.65879 29.2126
1 25.9127 27.1614 12.2616
1 17.9733 29.8135 3.20143
1 16.524 8.35206 10.9371
1 8.93584 26.171 10.1565
1 22.7728 24.5981 9.58094
1 15.6178 12.4548 10.9265
1 13.6966 4.48959 27.606
1 16.9054 29.7762 27.2297
1 20.2998 26.4429 8.22476
1 14.0412 12.4645 14.0816
1 4.01021 13.3001 11.6031
1 0.527453 27.7503 26.804
1 21.6752 26.3109 8.56157
1 27.9381 21.6128 13.6076
1 11.2862 13.78 2.68689
1 8.86602 21.8707 29.866
1 9.49443 16.0748 4.5322
1 9.17764 3.08788 25.0787
1 19.2085 23.5182 13.9937
1 30.0655 7.83181 20.131
1 6.27876 9.16124 16.4296
1 22.707 26.0949 27.0045
1 14.7706 22.3251 7.13039
1 6.51897 11.8488 22.9032
1 2.07999 28.3423 11.4877
1 4.98252 19.6222 9.84816
1 13.0384 9.98524 2.92239
1 23.7464 13.6061 26.5988
1 28.1927 11.8752 21.0465
1 26.2053 4.10181 0.686099
1 8.79226 8.69255 22.7436
1 27.8788 20.8396 8.49579
1 2.9332 24.8734 5.38845
1 14.4025 12.2565 20.8584
1 1.48443 10.589 13.6377
1 15.5714 6.97575 21.0469
1 28.7109 19.7307 6.18895
1 11.4313 25.3365 1.26098
1 27.452 26.3728 0.922309
1 8.30228 14.7121 2.89324
1 28.3123 2.54625 30.0804
1 9.51217 7.95314 8.35795
1 15.094 18.9138 11.2946
1 4.14863 19.2422 29.9707
1 19.0323 18.0414 9.16683
1 11.0795 25.6117 20.3152
1 7.13645 28.5484 4.32484
1 1.20473 29.4287 22.3086
1 17.1401 18.1941 20.8703
1 7.51232 3.55458 18.57
1 7.70066 17.8617 26.1006
1 3.79661 4.03944 2.61085
1 22.1993 8.73403 21.1393
1 2.30154 18.9281 8.52835
1 11.5197 8.28188 22.1626
1 8.28721 1.76293 21.6862
1 6.95213 28.2658 16.3381
1 13.4839 21.6511 1.92094
1 7.96397 12.3174 9.02173
1 24.2989 0.772845 20.5405
1 13.8888 1.6435 30.0011
1 17.3098 27.9487 14.6853
1 20.8882 24.1637 25.4628
1 21.9054 18.7541 1.05414
1 2.36004 10.7162 3.31884
1 17.1844 7.5395 3.80305
1 17.0763 2.90938 29.3843
1 4.51938 26.3322 14.4769
1 22.3458 9.54478 27.3758
1 7.89284 7.03969 6.58013
1 21.9599 0.337369 30.3137
1 28.1621 9.10074 13.5745
1 17.0102 17.5411 26.4276
1 8.49792 5.32187 12.4867
1 17.8401 0.88039 2.4715
1 21.7054 6.50761 22.1796
1 18.9776 5.47545 4.80702
1 22.9852 9.10893 9.72684
1 18.9844 0.437895 10.7077
1 13.7817 14.4382 27.1615
1 26.8205 10.4503 24.9607
1 19.3501 12.8047 12.3834
1 30.2817 8.66147 0.94603
1 18.2728 15.1204 0.151721
1 8.14044 18.4459 7.41638
1 13.2667 8.76186 11.5286
1 2.03878 10.4644 19.1792
1 28.7273 7.13453 29.8209
1 18.8106 9.78462 21.8631
1 7.5012 8.62328 21.8429
1 9.28398 8.7366 11.213
1 3.7554 5.93132 19.1729
1 2.61722 14.9538 28.1816
1 23.9536 13.7378 2.84215
1 9.88337 18.922 11.2737
1 7.22066 11.5905 17.6131
1 25.9453 10.4465 25.967
1 4.51271 6.34235 9.76372
1 17.1423 20.6932 10.946
1 21.4393 13.4696 4.39581
1 9.32908 14.0343 14.1635
1 28.127 5.85206 3.71049
1 3.56742 3.70919 12.1856
1 0.908294 11.4213 14.4564
1 13.1408 6.92711 20.8568
1 28.022 15.2618 22.1692
1 27.134 2.6841 5.6335
1 20.653 16.2316 11.7744
1 25.156 17.0205 2.22642
1 21.1193 26.1574 18.2213
1 28.2631 30.2461 25.8438
1 2.41635 10.255 20.6814
1 17.6716 11.2758 15.5771
1 20.1446 7.42093 7.17332
1 0.823501 9.42459 11.4838
1 9.36438 20.4539 28.4006
1 9.11759 11.7388 19.3155
1 13.2531 17.6586 11.8054
1 13.9745 7.66224 12.0873
1 16.7178 25.2009 6.65558
1 26.2188 27.7487 18.3902
1 2.12152 1.48585 3.60161
1 15.4678 12.7356 13.5334
1 11.549 5.40184 22.4247
1 26.8523 0.61104 19.5366
1 28.3803 13.4177 3.88246
1 16.9708 10.4849 24.1114
1 16.9 10.0286 20.3141
1 24.8655 20.5219 7.68596
1 15.9348 29.4444 12.7909
1 27.153 19.6101 29.7502
1 6.6176 0.701352 12.5065
1 6.33423 15.5121 28.679
1 21.6237 27.3735 29.2091
1 30.2795 4.7896 9.40525
1 24.4558 12.7221 15.4374
1 13.8113 26.3562 30.2372
1 3.31242 26.8592 26.0234
1 4.31406 7.01128 29.7002
1 3.62228 28.8367 22.7008
1 4.46586 6.20184 25.036
1 24.9377 12.6174 29.1455
1 4.77093 7.6096 10.5246
1 5.25112 25.8344 9.6843
1 16.5147 24.1358 27.9386
1 5.75868 26.7634 6.87382
1 23.7819 5.59231 18.53
1 10.0539 9.93075 12.7979
1 0.742556 10.1521 18.52
1 2.18491 3.3785 7.61105
1 7.20355 2.34163 24.1714
1 18.7812 15.2066 4.51852
1 19.6853 5.24366 15.8182
1 7.18859 27.5677 3.19805
1 22.007 27.6206 1.74446
1 25.3859 6.94755 29.786
1 23.8364 18.0256 22.6313
1 14.5947 26.546 16.0426
1 17.4454 7.51541 22.3427
1 24.6109 17.7533 15.7563
1 12.1088 23.714 5.44045
1 18.7871 12.9517 4.89384
1 7.5173 17.1619 2.00788
1 9.04417 17.5777 2.51569
1 12.5119 6.31672 28.308
1 24.5381 19.1194 22.4205
1 12.1755 22.1471 3.5426
1 7.55223 11.0729 29.4088
1 29.3296 1.1037 5.28219
1 26.9127 6.56534 27.9629
1 29.3796 17.2859 3.07692
1 3.90184 7.21094 20.7809
1 28.1396 8.56972 5.00235
1 10.4987 27.0725 8.05606
1 2.63866 14.5774 25.3949
1 25.7633 2.92696 30.041
1 1.84449 0.579057 29.4209
1 1.60849 3.79176 21.6374
1 10.7405 3.33748 11.7332
1 27.286 25.4924 13.559
1 9.92605 16.4298 12.7666
1 4.19124 8.12948 4.23878
1 23.4178 22.7548 3.43312
1 15.7552 11.8941 19.9033
1 4.22139 8.45838 29.8477
1 19.0298 12.7174 21.5906
1 14.9387 20.1553 2.77389
1 7.42436 26.1951 14.6978
1 16.7118 17.1151 18.9665
1 18.5002 15.6524 29.0398
1 9.43022 15.3439 1.1667
1 6.20443 3.95173 4.92965
1 8.0549 4.90169 22.0383
1 3.96811 23.5713 16.968
1 8.56324 11.5929 21.683
1 8.15676 8.43916 14.5322
1 9.40851 12.4706 3.34459
1 19.8369 2.7523 21.3735
1 29.9835 3.39049 11.0799
1 4.95709 4.21512 1.58544
1 4.46357 8.53744 9.52686
1 15.9244 22.9636 7.05072
1 9.86816 23.2247 17.0315
1 16.7642 10.3474 15.9888
1 20.3189 18.1931 6.53358
1 4.62461 3.03624 18.3934
1 14.8369 23.6024 29.6892
1 25.897 10.3597 23.8326
1 7.63761 28.4031 20.0729
1 14.5969 19.7867 16.8497
1 16.8231 8.94571 15.7507
1 24.2636 18.7956 13.4204
1 20.4079 9.55762 17.5726
1 24.7072 6.38625 0.727911
1 11.2333 8.97224 26.0443
1 24.8786 22.8601 27.4458
1 5.54447 28.2707 17.7368
1 0.524398 17.013 19.576
1 21.8835 27.0534 23.0938
1 29.8944 21.9427 2.16198
1 21.9295 6.35978 1.27534
1 2.95394 20.152 14.5831
1 16.2122 10.9445 8.72134
1 2.66976 17.5558 24.9281
1 22.5934 0.870914 7.0623
1 28.7666 24.0597 0.782236
1 29.5995 23.0757 11.7707
1 8.26307 19.8318 12.2106
1 14.2048 18.8434 26.2733
1 25.5779 29.1388 16.2387
1 16.1162 14.683 9.55564
1 6.40896 11.8937 30.1337
1 28.2767 29.0141 22.6781
1 17.1072 17.5925 15.1872
1 0.380725 23.5258 5.7463
1 9.05052 9.28276 5.21495
1 23.7415 25.6791 9.63689
1 4.7737 5.2292 17.0781
1 12.3179 21.6051 13.126
1 11.519 15.7514 26.9162
1 28.871 24.8907 18.8943
1 26.7087 26.8142 22.2446
1 26.6558 15.9353 28.2564
1 17.5987 5.70427 10.3186
1 20.1063 11.8801 11.7687
1 3.22152 28.9132 20.4566
1 26.6055 11.8456 8.32981
1 8.99052 2.82723 4.31153
1 23.587 28.9264 29.3104
1 21.5512 16.5355 25.1184
1 22.5465 16.8427 28.4789
1 28.2075 10.7293 9.3079
1 29.5133 15.5472 10.8504
1 11.7516 17.1864 26.9406
1 24.293 29.1758 26.472
1 7.25891 10.3965 28.3424
1 1.99577 22.6335 29.3283
1 12.7492 17.1554 24.8153
1 24.9053 8.07956 20.1154
1 24.1069 9.9064 22.2153
1 5.01049 14.4405 0.979745
1 15.0164 8.23746 15.3995
1 2.88646 8.41282 24.0171
1 10.0226 16.3869 7.71392
1 4.18404 15.0102 19.4335
1 19.4008 15.2225 17.6596
1 25.3815 29.0125 18.0047
1 27.8701 11.3145 27.2456
1 27.3841 6.25381 1.32813
1 3.07225 29.0739 19.0874
1 17.3198 25.6517 3.97515
1 21.5112 21.4085 27.7142
1 5.18895 20.0684 29.314
1 15.7179 26.5671 27.0983
1 19.9125 22.9906 19.1075
1 12.725 20.9865 2.81204
1 4.39099 1.10853 7.18338
1 1.04864 26.9526 23.1441
1 22.0006 22.6031 10.1864
1 23.4287 27.1236 18.1836
1 0.831946 22.2715 10.3283
1 10.6177 7.6958 15.2398
1 19.444 20.5584 28.0297
1 16.4784 21.2119 8.43203
1 10.8972 22.1037 17.9921
1 21.7478 17.1994 18.7481
1 14.8558 28.7642 5.5983
1 18.4636 26.3838 22.1419
1 20.2935 22.5939 14.2969
1 15.1881 29.8658 30.2348
1 13.9118 7.73404 6.25796
1 1.06634 22.7502 27.1227
1 7.37584 7.19812 5.4262
1 3.83214 8.4754 6.57841
1 8.26096 15.9898 6.74378
1 6.43878 23.1604 0.904189
1 26.638 2.72778 23.9466
1 26.5372 8.58522 20.3924
1 18.517 19.344 1.07945
1 4.64964 7.40264 15.3851
1 11.3927 11.6773 12.1936
1 16.0223 0.192108 24.6501
1 4.77001 25.0995 28.7223
1 2.74513 18.1272 4.55406
1 9.52325 18.2937 4.77177
1 4.71946 23.9792 14.5662
1 4.31651 4.04277 23.4438
1 8.18576 10.5989 19.6042
1 23.5876 20.8654 7.12285
1 0.169623 22.5638 12.8481
1 29.9334 7.24587 11.7887
1 30.3442 25.9563 22.2683
1 7.79984 2.5262 9.25358
1 12.492 22.1692 19.6624
1 27.7614 16.5082 27.87
1 17.712 13.9909 15.7588
1 22.6688 20.4644 21.5124
1 10.5958 2.14072 28.0248
1 11.1999 20.6892 2.2079
1 23.3208 5.9459 11.0261
1 10.5837 6.94311 16.572
1 2.66811 0.222353 26.29
1 14.2337 9.88449 11.4759
1 29.0545 0.654924 9.15139
1 13.8991 3.75515 5.21296
1 7.93858 9.06122 25.2061
1 9.74514 17.2582 16.9107
1 15.9733 7.7874 21.9958
1 16.4851 20.1924 20.2961
1 18.9846 26.5716 25.4302
1 29.3302 14.0922 25.2291
1 24.8294 22.5292 12.958
1 7.7253 14.9088 26.581
1 29.8179 22.2531 5.98999
1 0.887462 16.4738 1.33876
1 10.6734 5.89653 4.53183
1 7.96217 10.3906 25.0466
1 23.3027 12.7116 21.6652
1 25.0422 1.07447 24.5554
1 2.23413 17.7658 13.799
1 16.5479 29.1961 9.80055
1 18.5557 25.0048 25.563
1 8.4418 24.9027 21.0146
1 4.93031 26.2128 2.92248
1 20.9646 9.0831 21.6302
1 24.1532 8.77496 19.2165
1 22.8394 2.19838 3.81412
1 2.26609 29.1464 3.84222
1 0.957741 13.8614 26.7815
1 25.8466 30.3838 18.5081
1 14.5402 11.6008 27.8707
1 2.48183 9.87221 2.26303
1 27.8543 14.4077 20.4471
1 12.319 19.5105 21.9288
1 14.5488 5.66223 18.0461
1 8.65619 0.170486 17.3001
1 17.7918 22.2913 29.0458
1 21.0573 21.7428 6.24834
1 10.7934 15.9272 18.5546
1 28.2629 12.2001 4.75727
1 17.787 18.9558 6.39657
1 25.5849 5.23052 3.47881
1 28.8435 2.82023 10.2264
1 22.4924 3.7614 10.2347
1 24.0536 6.54189 23.4239
1 27.5703 25.0691 0.755441
1 4.81985 26.9999 15.4729
1 1.32885 1.05201 4.73469
1 11.7641 17.0803 21.7295
1 7.30384 14.0713 4.84996
1 1.35118 29.3773 7.37997
1 3.09281 25.2073 9.92298
1 6.99759 4.09436 30.2594
1 12.962 4.54737 2.06297
1 29.0191 18.4814 27.6573
1 11.7313 7.86005 1.60122
1 9.39754 19.0529 2.01028
1 27.6045 1.07741 18.3894
1 10.1009 25.946 25.072
1 5.9981 13.1116 6.7876
1 18.6819 20.6384 14.1677
1 21.281 28.2055 11.8249
1 15.4056 6.84897 15.6205
1 27.7022 28.7129 0.820123
1 27.5524 3.61928 17.1196
1 14.8639 22.0434 18.024
1 14.8247 27.0391 9.95334
1 0.926414 23.684 8.16998
1 23.9771 26.4037 29.5137
1 6.91302 19.9537 6.64335
1 24.6268 24.9138 18.6517
1 1.8936 25.1667 11.9478
1 22.1627 18.9849 8.75715
1 8.26208 13.2602 2.68464
1 5.56025 5.42504 10.1246
1 5.04949 23.4545 0.42593
1 4.74786 21.5401 29.3665
1 9.81712 6.82443 26.4756
1 20.2635 2.83616 26.7851
1 18.4726 2.47562 0.543869
1 2.87212 29.8382 25.0605
1 3.08108 0.173893 3.56156
1 16.6568 27.3176 17.5987
1 2.63862 18.8177 25.4349
1 15.1037 25.5758 20.9528
1 17.4235 4.97766 4.73965
1 30.1904 18.1585 17.5081
1 16.403 0.828393 6.10297
1 10.3146 8.69054 28.3387
1 13.8595 11.1195 12.3316
1 23.8116 25.9757 21.412
1 27.869 27.0865 2.91415
1 26.3427 17.1006 13.5208
1 19.2862 6.83197 12.603
1 5.37542 22.1452 20.7042
1 3.40873 27.6844 22.0851
1 7.21641 16.8925 4.76187
1 0.328825 19.0394 22.2283
1 27.7105 0.307887 14.2376
1 12.2654 13.6915 5.28487
1 2.81587 17.3597 20.1028
1 15.9019 18.8863 3.44742
1 16.5945 20.503 23.285
1 26.9924 4.52541 25.5396
1 15.4164 2.77694 25.1714
1 3.11687 23.4574 14.3008
1 14.8291 9.20523 25.8161
1 18.3921 23.741 22.6301
1 6.68436 24.4218 29.2065
1 20.488 22.0099 15.5573
1 28.0202 19.002 2.9261
1 24.8428 0.809435 28.2881
1 26.3195 24.429 0.636261
1 26.3114 13.8353 2.88664
1 22.4979 14.94 23.1395
1 17.5017 7.23906 23.9123
1 17.0594 0.671953 0.287215
1 3.75551 0.755433 27.0343
1 1.30942 10.3473 21.4662
1 2.65395 7.07885 4.7139
1 28.7552 2.67597 13.3331
1 24.9904 2.90838 9.88159
1 0.996867 26.6959 8.49787
1 16.6768 27.9591 13.3526
1 1.0234 14.7327 23.4399
1 16.2681 30.074 22.474
1 24.9997 7.87932 25.7149
1 12.6124 7.73094 24.6094
1 9.70553 24.9511 28.2598
1 11.5542 10.5486 9.87602
1 13.0154 1.13162 25.7527
1 2.25295 16.9361 4.67157
1 7.55574 23.9515 26.8147
1 26.483 6.64736 5.39649
1 17.5373 5.80771 2.34685
1 1.27463 13.3649 9.62477
1 27.6874 23.2994 16.7756
1 21.0809 7.88617 22.714
1 8.13671 1.08521 27.8012
1 18.3376 29.8216 20.245
1 5.62859 26.9339 26.9301
1 9.75189 4.62744 6.33795
1 6.95488 1.95175 3.20452
1 6.49762 17.3168 10.4164
1 5.54327 25.4813 18.893
1 10.6292 4.93856 18.7084
1 21.0636 13.46 7.31912
1 6.02129 16.6267 0.265957
1 29.7565 3.92688 12.898
1 17.7889 5.37309 21.224
1 29.3436 28.1082 22.4021
1 4.90752 14.8192 22.8751
1 6.73496 20.5158 1.4186
1 3.5058 9.57557 1.58561
1 5.29741 9.65025 14.4138
1 3.74827 6.92549 2.02051
1 0.228279 26.9162 4.74619
1 4.51836 21.7143 11.4733
1 24.9306 13.0404 17.849
1 23.9136 7.21219 25.065
1 22.9573 29.332 26.352
1 29.9399 24.8795 5.82755
1 17.3381 21.8201 5.85434
1 10.2625 24.2281 26.8794
1 28.5435 16.0091 26.6275
1 17.5397 11.9674 21.619
1 1.8338 10.6925 26.7854
1 6.11132 8.10576 19.9877
1 17.7635 27.8602 29.7035
1 25.0005 15.3844 14.7998
1 18.181 22.7568 13.3526
1 27.2934 13.1022 20.9837
1 10.7943 19.7051 0.644055
1 9.93813 28.4175 19.4034
1 13.4622 8.41643 17.0588
1 10.6355 29.9385 21.3992
1 4.64355 25.6203 7.93277
1 14.787 15.14 20.3206
1 16.8307 3.5806 13.9616
1 1.90474 29.7545 12.1191
1 1.42296 16.4574 5.5207
1 28.7115 29.6205 29.9409
1 29.6193 5.02835 15.7596
1 14.5379 21.6747 15.5688
1 11.2575 1.77186 19.9832
1 6.3402 10.7874 5.97971
1 10.9245 3.03374 15.6802
1 12.9064 25.2605 30.0747
1 17.6121 14.8329 5.39482
1 11.0427 9.06486 0.895043
1 1.585 23.7871 23.7533
1 5.76506 2.25919 24.047
1 16.462 0.557487 9.62273