4096
Atoms. Timestep: 1640
1 8.31335 13.8332 20.0939
1 14.7344 23.3075 18.2253
1 9.67843 5.98874 29.4331
1 20.9028 5.7222 2.35078
1 4.79413 27.0294 0.45047
1 6.6922 21.1989 20.0838
1 10.0263 30.3613 13.5154
1 23.6979 5.96325 12.2281
1 19.0333 4.39813 5.82774
1 29.3759 17.314 2.43913
1 22.4688 6.39329 18.9046
1 8.00973 8.21031 16.3756
1 11.1839 26.5182 17.2231
1 21.8448 30.106 6.13672
1 24.1489 25.1494 15.2261
1 1.079 26.837 2.81255
1 26.2713 27.0187 19.9964
1 11.765 16.7432 28.7944
1 30.3091 18.6073 5.16116
1 29.161 26.6098 17.8279
1 8.83365 28.773 6.68434
1 13.2335 25.6291 3.00289
1 15.4834 2.07302 18.8029
1 12.3465 18.6992 22.3403
1 10.475 1.92139 9.36139
1 21.8408 11.8711 11.9616
1 17.6239 29.5749 13.2417
1 11.9855 5.69714 7.84738
1 26.9462 11.9115 0.0628048
1 16.0716 20.2444 24.9514
1 11.8882 23.1857 16.8617
1 3.99135 16.0637 28.539
1 17.024 14.013 7.14613
1 9.3476 17.5263 14.801
1 5.64855 13.7519 10.9254
1 6.79984 27.7103 21.9144
1 21.1428 0.12752 9.90704
1 18.707 28.6164 29.3717
1 6.13441 14.1656 1.88718
1 19.9426 11.0924 21.1594
1 14.4584 8.17007 23.8684
1 24.5836 14.0831 10.0172
1 6.19834 16.1179 13.5657
1 21.3522 12.3692 27.0703
1 14.0113 6.0476 22.0686
1 9.54615 28.5686 17.8747
1 13.7548 26.7238 15.4767
1 17.2941 6.0864 1.03484
1 9.25275 21.9314 1.23415
1 18.0264 1.87728 9.00369
1 13.2715 28.9586 4.40596
1 15.7773 3.48932 13.3262
1 5.41753 21.96 11.4606
1 15.6046 9.02158 7.00725
1 5.56434 28.993 25.5686
1 18.8514 9.7071 16.4525
1 1.32673 14.0762 8.33305
1 5.46788 21.9884 26.7008
1 2.10283 24.7572 28.8262
1 0.158371 19.7464 25.6833
1 27.539 6.13251 10.9153
1 4.41355 28.8604 2.5576
1 20.3186 8.80915 5.63768
1 6.24319 16.0778 28.8543
1 12.2382 1.16564 8.21169
1 20.2038 19.8311 14.7455
1 13.3972 14.6281 27.8981
1 17.8591 20.0588 14.7489
1 27.4941 5.59778 23.8481
1 21.3025 9.2744 17.05
1 3.34613 23.0658 24.8192
1 28.3408 28.7046 7.96793
1 5.02699 1.49323 27.0143
1 6.19924 29.7191 8.92913
1 20.5991 2.8298 8.84613
1 18.1539 24.9391 29.4648
1 2.5328 28.9974 9.80285
1 0.725528 22.4806 23.4787
1 2.56448 16.9405 27.7134
1 25.608 28.8023 25.0842
1 23.1124 2.24079 5.11918
1 20.461 10.1733 26.5318
1 13.7784 9.64243 19.3913
1 27.8809 25.0201 27.0908
1 1.07292 8.69204 6.77255
1 6.11664 22.5008 9.10427
1 22.2455 11.3676 25.206
1 28.3394 2.67529 0.602545
1 12.1014 9.36456 23.7918
1 24.8522 11.5475 14.3392
1 21.8883 25.8229 9.131
1 4.09928 6.82719 9.72031
1 27.5169 26.1415 22.325
1 0.492303 18.9851 12.4141
1 6.16964 22.501 3.58146
1 16.2391 23.7339 10.8095
1 25.9594 18.0655 7.23169
1 4.96521 8.45339 2.15889
1 27.4388 30.2401 17.659
1 10.2807 18.8279 27.9954
1 6.24895 16.3541 6.81033
1 2.45217 23.278 20.6492
1 21.0545 27.1792 16.2405
1 12.4923 0.475191 0.90821
1 22.2459 11.3041 17.0256
1 2.52931 19.7904 4.3762
1 2.76824 8.92314 15.5753
1 5.21394 27.5008 23.8565
1 28.3212 28.3195 19.4832
1 15.5176 27.8542 20.9091
1 8.53327 25.5878 0.331524
1 15.3105 17.7293 1.82152
1 21.3056 1.40789 13.244
1 18.5033 29.3274 4.64414
1 29.5465 11.409 20.9965
1 22.7121 14.4344 15.8612
1 11.1205 0.415326 8.48197
1 29.4341 25.5588 9.43763
1 6.79881 21.3829 27.5323
1 22.1786 12.9891 13.3179
1 25.1697 27.0118 21.3464
1 27.5875 22.4452 7.16976
1 15.9115 25.9167 29.1632
1 14.8034 29.5446 18.99
1 26.4952 12.736 27.0685
1 9.53403 26.4771 13.5572
1 23.0795 20.2385 6.54643
1 11.7983 12.9052 14.5879
1 8.97525 19.4766 16.7838
1 28.4359 22.5733 14.8936
1 25.1486 12.3276 17.6638
1 8.84818 9.51078 10.9842
1 5.18248 21.4868 14.35
1 6.64296 3.09403 0.447298
1 0.686015 20.7587 10.6013
1 20.7449 8.02095 24.9094
1 13.4455 10.5665 9.21841
1 21.1734 10.5024 17.6875
1 11.7904 18.7232 23.6296
1 26.3056 26.1695 11.1234
1 24.0498 5.51026 6.71705
1 1.18144 26.7752 -0.297691
1 18.4856 26.5469 27.2314
1 14.3212 4.78744 5.70899
1 22.641 23.6588 6.158
1 19.8482 22.5379 23.7439
1 0.305402 10.3995 12.9302
1 26.6414 12.2862 10.8658
1 20.3036 6.93245 8.03453
1 16.7916 27.3702 12.7649
1 2.70375 24.9123 23.8714
1 28.0617 29.63 24.1369
1 22.0942 15.6178 6.45626
1 18.0016 3.08905 25.7984
1 0.0388445 26.0936 20.3193
1 27.4656 7.63687 15.1374
1 7.23491 17.3828 7.00404
1 14.0241 8.7351 27.8117
1 15.5832 4.76737 29.5324
1 28.8071 10.7478 26.1207
1 21.6978 27.2596 3.12136
1 9.88745 22.4498 14.8435
1 0.926911 16.7711 11.0909
1 16.6874 11.3004 26.5607
1 26.1966 6.81839 15.2408
1 24.2406 9.63675 21.4825
1 14.9812 4.11693 12.132
1 19.5072 12.2896 21.7559
1 7.1818 8.51833 20.0334
1 13.6142 14.0954 20.8735
1 2.38943 24.435 27.3969
1 9.65526 9.18498 21.12
1 14.3408 13.1144 24.3526
1 22.7551 4.07322 20.1367
1 26.5614 13.4831 14.8364
1 15.457 11.6423 13.335
1 30.2997 21.5828 7.80929
1 6.14403 5.95385 2.93509
1 21.2504 16.6842 18.2809
1 0.331812 15.3432 8.29095
1 13.7089 2.34561 14.9993
1 14.4562 10.284 22.0613
1 10.0851 11.1902 24.1173
1 10.0747 5.45293 25.7826
1 2.45127 22.8417 6.76031
1 30.5938 2.76085 12.757
1 19.1489 6.0753 7.65302
1 6.21851 22.9014 7.62526
1 15.49 2.10974 13.4939
1 22.8798 7.42428 3.0264
1 18.9969 20.9875 7.10236
1 5.88021 29.6762 28.7675
1 19.3757 8.73755 20.9625
1 11.6545 15.6259 5.51973
1 17.9718 24.0784 26.0863
1 1.01636 2.51264 14.1518
1 27.9473 23.6875 8.97539
1 28.9192 15.0643 16.1371
1 5.31493 6.59827 30.4356
1 9.79862 14.7735 2.24363
1 24.2916 28.3011 24.8433
1 28.3029 3.1573 11.9014
1 21.1023 24.1746 2.96886
1 13.9491 2.97277 9.32297
1 28.6993 24.2389 26.3887
1 12.4722 29.7523 11.7132
1 29.5091 29.3748 26.531
1 30.1876 21.6649 29.3737
1 25.2421 17.1774 18.2849
1 1.13683 4.7653 23.0466
1 21.8765 6.31271 7.7978
1 20.128 2.67224 27.7772
1 22.1403 21.7025 12.0832
1 13.5297 3.06988 24.3735
1 8.15078 29.0377 7.95611
1 6.30654 6.24742 13.9033
1 22.5408 17.873 21.3183
1 7.97483 1.43719 17.4593
1 2.60833 8.442 1.98737
1 9.99754 13.6754 1.31965
1 26.9791 14.3098 3.20429
1 5.87422 11.0607 13.679
1 14.4243 5.52241 19.2418
1 18.4199 15.6862 27.3483
1 20.0638 14.6969 7.6013
1 20.7259 7.30759 20.5715
1 19.8317 16.5406 4.16171
1 28.2674 3.00679 23.6461
1 14.6292 16.6609 27.0981
1 24.0571 1.42516 2.41693
1 7.96827 0.984508 23.2799
1 4.3377 14.3166 14.4826
1 10.6205 14.7809 14.3838
1 3.51128 12.1549 5.31597
1 2.38826 28.7783 16.6793
1 25.8697 15.9881 15.4512
1 3.12376 4.03666 10.6814
1 30.1258 13.8091 17.9671
1 23.6015 10.8374 2.6519
1 28.0884 21.5832 5.07619
1 2.35696 0.877549 24.1457
1 15.3996 4.99219 23.8049
1 13.3907 2.29949 12.3831
1 12.1191 25.0788 28.4854
1 24.3843 13.026 4.31452
1 6.83789 18.2588 8.16747
1 0.376895 16.0881 14.6872
1 16.2979 28.5217 0.76897
1 24.9396 26.9965 27.8566
1 22.2424 16.5656 12.297
1 1.81235 16.9771 30.2116
1 16.4153 13.9044 13.2506
1 17.9643 20.159 3.44222
1 18.6095 15.5948 1.90246
1 7.87516 14.559 5.75181
1 28.5548 26.052 24.7294
1 27.4245 4.24142 6.62114
1 3.98463 0.81323 26.2684
1 4.54427 18.5375 9.3352
1 27.2046 26.4895 12.049
1 10.5956 10.5926 3.23562
1 8.98583 2.23473 20.9239
1 21.7444 15.7581 0.830826
1 2.52228 16.8868 23.2143
1 0.639544 10.3337 14.4751
1 14.6928 25.0042 9.16927
1 7.61985 29.9925 26.9703
1 13.2035 8.43368 3.90471
1 1.1229 4.98342 11.0001
1 28.7287 24.5841 8.35291
1 13.6739 10.3246 7.72599
1 15.2036 10.5207 7.65673
1 16.5089 8.82191 22.4144
1 4.78653 14.2428 29.896
1 1.73612 17.7485 18.5649
1 8.04321 17.8217 6.09488
1 26.4665 2.78528 2.76918
1 4.42112 3.65592 16.5333
1 5.12742 19.0608 25.0715
1 8.13435 7.87328 19.4026
1 14.9293 12.3975 14.45
1 0.0943713 29.935 19.8604
1 13.3085 8.54509 23.0306
1 24.2225 25.2864 6.16706
1 30.1347 5.49356 10.691
1 15.557 29.559 27.1843
1 11.6028 25.4997 16.4044
1 5.26223 22.5078 1.41038
1 20.9699 27.9339 5.94625
1 11.0202 9.89958 14.8456
1 5.75975 14.1395 12.1747
1 19.818 24.7629 11.8525
1 29.0892 20.9882 28.576
1 16.2932 15.1434 14.3005
1 0.413118 19.1839 23.6035
1 5.38033 19.2939 18.5729
1 18.2765 6.65947 29.4133
1 12.6371 18.9553 29.7471
1 14.055 23.8499 12.4605
1 22.17 22.2922 6.44167
1 22.2304 8.49479 14.0981
1 24.5435 6.30895 19.8429
1 26.8907 7.46733 3.66974
1 8.03866 18.8105 17.5634
1 10.6186 20.4835 4.51276
1 27.7033 28.5084 4.93359
1 11.8714 20.7064 26.3541
1 26.2607 23.2985 27.841
1 15.1208 28.2557 24.906
1 16.0243 29.14 8.38923
1 29.8536 15.8816 16.7801
1 27.2485 0.868665 4.10222
1 25.0487 28.2413 22.082
1 22.7653 15.3309 12.5441
1 24.0569 0.961618 15.6715
1 6.49402 6.43202 25.6371
1 22.9425 6.07978 23.9037
1 9.52176 4.75156 18.6691
1 20.8086 27.52 20.829
1 22.4143 10.3039 27.7112
1 20.9128 18.0403 7.71576
1 16.901 9.87355 9.33532
1 7.78254 25.0323 22.7125
1 8.72897 0.160235 12.6018
1 15.6422 19.992 22.0699
1 12.9829 16.9919 8.29
1 4.65086 25.7927 16.4906
1 14.3607 18.1024 27.2841
1 10.824 16.9078 26.2149
1 5.97606 3.21841 19.7999
1 20.4629 23.4464 12.3126
1 26.8814 30.0575 21.0329
1 11.2203 1.09126 18.3918
1 29.7911 18.6194 2.61407
1 18.4552 1.04659 2.08546
1 28.1321 2.91666 6.72582
1 13.4401 29.9566 5.28909
1 24.0045 5.91332 30.1153
1 29.2163 4.83294 4.62092
1 24.5686 15.8815 2.06741
1 28.0919 5.30624 26.0558
1 18.4165 15.8893 25.7965
1 21.4933 19.8353 9.249
1 23.2151 10.5286 16.0518
1 1.15495 22.4028 26.0145
1 22.1298 2.44547 12.5464
1 28.5322 16.6037 20.8711
1 9.68016 21.7621 19.9436
1 21.0715 6.53717 12.9509
1 9.4694 13.9476 16.498
1 16.1029 6.82365 13.7681
1 8.09149 25.3878 17.0776
1 9.30435 19.0835 25.7806
1 18.3925 7.72571 25.9933
1 10.5099 30.2542 4.81935
1 5.43618 1.47044 17.8621
1 0.498518 29.6301 18.4906
1 17.2327 18.0367 16.8209
1 12.3762 1.1263 29.6768
1 18.9944 10.8093 8.23007
1 4.58047 13.0735 14.4336
1 23.4673 26.6217 27.5301
1 17.4354 23.7978 14.3624
1 25.4043 3.29975 25.7904
1 12.2015 7.89216 13.8221
1 12.6911 19.7517 28.3586
1 9.0128 4.66777 25.8453
1 19.948 5.27479 4.95749
1 14.6719 25.4494 15.3396
1 7.62697 18.5504 4.08746
1 29.6072 4.34277 16.8733
1 22.1568 20.7493 0.209343
1 5.96163 8.84912 6.54595
1 29.8452 12.224 24.2509
1 8.08781 12.0319 5.40644
1 11.9109 28.7811 28.6308
1 23.3845 13.1608 27.3747
1 24.5952 21.5759 28.1009
1 18.3644 13.0057 7.02321
1 7.0064 20.9043 24.594
1 26.7458 5.21475 11.7636
1 4.0121 12.4236 20.3814
1 4.40333 10.9597 2.93232
1 29.7708 26.2057 23.8915
1 21.1904 27.1468 11.8542
1 11.4782 12.9325 17.0823
1 1.94022 2.38587 7.42676
1 6.77721 7.14802 27.0769
1 4.90216 10.9262 7.7171
1 17.432 10.5114 20.923
1 19.5199 22.3096 17.3853
1 3.48979 12.2286 11.7834
1 18.2607 4.18802 19.3272
1 24.5852 26.849 24.8601
1 10.3793 12.0985 10.7904
1 14.1485 22.4831 6.37328
1 25.3393 19.704 25.3976
1 6.79325 28.042 17.8916
1 20.4853 24.1774 30.1821
1 20.1413 17.2509 27.6428
1 6.85878 3.14513 26.9146
1 19.5524 12.8575 8.96107
1 12.423 16.9797 27.4297
1 3.06936 16.2772 12.5042
1 6.39356 18.0395 3.01995
1 8.30965 2.52409 27.9904
1 6.9332 3.02393 21.847
1 28.598 8.94625 18.2399
1 20.0671 10.5401 14.9977
1 8.20012 13.4242 12.0486
1 4.27167 20.2139 1.55568
1 10.5624 6.60731 2.59873
1 26.1238 17.9132 22.0053
1 26.8667 29.7324 4.80014
1 16.9256 13.8383 9.50915
1 22.0968 25.2956 20.883
1 7.04784 8.42556 26.5062
1 10.4329 1.60874 24.5699
1 11.2315 10.0411 22.683
1 25.8868 8.67441 1.59864
1 15.6212 27.4384 2.14143
1 0.122205 4.73256 1.17157
1 7.90634 27.9624 4.58555
1 30.0187 4.63443 30.0531
1 18.9934 15.5744 7.6423
1 25.6995 27.0458 5.63913
1 14.8825 12.459 1.13402
1 17.9446 22.0746 17.201
1 14.773 28.5617 8.2943
1 11.6205 3.32786 7.84981
1 4.44385 21.4509 2.18299
1 25.4158 13.5835 26.3171
1 23.7161 22.4005 0.27774
1 26.0027 6.49812 2.679
1 20.3162 23.8883 9.10461
1 15.8096 29.783 23.2556
1 15.1842 12.224 11.9806
1 13.3546 15.6739 18.9292
1 14.1956 21.853 22.424
1 0.682221 0.90415 20.6422
1 27.6331 18.8887 8.81876
1 15.444 12.3029 20.4484
1 5.64686 17.0872 4.00316
1 13.6649 29.4136 7.8254
1 3.3072 5.1487 28.9811
1 17.9405 16.9012 14.5703
1 23.7425 17.3644 21.211
1 1.04817 29.4091 13.2958
1 26.8452 19.3469 7.93617
1 19.0327 24.069 30.4329
1 15.8082 28.1605 23.6048
1 26.4959 1.15797 30.2235
1 17.155 11.8145 27.993
1 18.834 9.05774 3.12995
1 2.59256 21.3151 13.5052
1 5.13388 19.6148 15.7076
1 13.6298 24.7534 2.05542
1 16.9936 11.3315 1.40634
1 22.1968 22.1483 24.0608
1 3.6404 5.58328 19.4599
1 7.82948 28.6881 20.7594
1 10.4933 6.60947 20.7918
1 7.70653 12.5262 20.7853
1 21.8727 14.4362 0.0597957
1 18.5828 11.1782 29.8469
1 1.45199 19.9809 11.5624
1 24.0979 7.39691 2.36743
1 23.5455 4.12817 6.47761
1 12.8721 5.28567 8.76579
1 4.42908 6.50534 4.12156
1 5.00359 21.1303 3.89541
1 21.975 23.9272 20.9736
1 13.3089 10.362 0.782207
1 9.07984 10.3363 15.575
1 10.0357 20.3146 3.22436
1 12.7345 11.3146 13.8895
1 8.31276 19.5025 19.5619
1 23.1849 3.19073 14.7845
1 22.5553 10.7534 14.6158
1 14.3962 1.7345 8.44608
1 11.5426 12.9046 -0.460066
1 23.1097 29.1232 15.9034
1 29.357 21.4887 27.124
1 13.3385 21.2571 13.4087
1 12.2417 22.7276 15.6811
1 7.66733 17.0552 29.0588
1 9.74402 20.2025 19.3409
1 25.9795 10.8901 13.709
1 10.652 13.6464 21.4759
1 23.3979 11.2539 11.8585
1 7.29831 19.8211 20.5678
1 2.06306 24.5435 1.26591
1 4.26451 20.0285 6.33531
1 13.7329 17.6508 20.7564
1 9.8998 29.851 6.23483
1 7.34316 6.27051 2.13489
1 12.3145 5.96675 28.5662
1 19.9168 27.3181 10.0591
1 17.548 14.3065 12.3463
1 13.6318 6.07849 28.1528
1 17.3731 9.07836 30.1626
1 13.5219 12.4291 18.8811
1 18.6355 27.0226 21.1527
1 27.4592 0.624282 24.322
1 23.445 21.5215 12.0478
1 13.4656 18.3748 8.04211
1 29.1875 11.8409 1.12937
1 3.82461 28.1817 7.87004
1 2.03818 14.9589 26.712
1 28.6318 11.1691 19.7104
1 28.4972 16.478 27.679
1 19.963 5.63563 12.8836
1 10.5842 18.6357 1.63026
1 27.4985 3.73031 27.7476
1 16.9631 6.53851 28.488
1 20.6429 13.024 5.6775
1 17.743 17.9953 20.8522
1 0.405847 27.3368 24.1627
1 26.5241 26.4525 16.4883
1 22.9401 10.5445 21.2753
1 1.09546 1.08087 3.30168
1 12.463 15.1762 23.6416
1 22.5181 16.9165 15.2824
1 3.09748 1.03038 5.43429
1 8.46003 21.7866 7.14929
1 12.392 25.1835 18.7889
1 10.4311 0.157335 19.1949
1 1.19922 11.8194 29.2864
1 29.298 0.625836 7.81997
1 20.8554 1.56771 29.7485
1 21.659 15.7508 28.4659
1 18.1907 25.9248 20.3562
1 19.5788 3.3973 30.2762
1 15.5598 28.4934 10.8358
1 1.0501 7.4298 20.8641
1 23.7692 14.8171 24.4368
1 10.1473 17.6797 12.2705
1 25.4853 20.8863 24.6742
1 25.9677 23.5476 24.7287
1 0.757878 14.5955 4.32337
1 26.6004 28.8819 27.9177
1 29.5671 14.0985 20.3406
1 1.16245 17.8145 8.41829
1 28.4139 9.81114 13.5337
1 23.0103 29.0059 26.798
1 12.0461 25.8398 4.94896
1 10.4737 17.0547 10.3376
1 16.2773 22.6571 9.91206
1 18.9376 29.1801 21.0226
1 24.367 4.74931 11.5797
1 7.27768 16.7554 23.0008
1 9.53613 13.4163 12.4006
1 24.6259 24.2531 3.24685
1 17.9469 23.3242 23.0518
1 27.7098 20.4477 25.4968
1 25.6199 26.0016 17.3823
1 17.7368 25.5316 3.27101
1 30.2311 7.1662 30.3139
1 27.0504 18.0072 28.5367
1 23.0284 8.07668 29.7254
1 24.7894 15.8989 18.5293
1 11.1872 25.1251 5.87918
1 24.9243 18.4255 21.5486
1 30.0249 24.6579 0.992819
1 5.28614 12.2657 30.0578
1 29.6271 15.5994 30.5895
1 5.81907 5.94675 20.011
1 29.9171 27.7021 2.84403
1 27.8437 25.299 30.1749
1 22.7105 18.0308 2.37806
1 5.00532 26.9722 15.8012
1 18.6892 23.0992 14.5374
1 4.5124 22.1339 18.9723
1 25.5584 6.27682 22.0888
1 16.5295 15.3905 28.0569
1 10.1779 19.2452 20.4421
1 18.3334 28.6641 11.0059
1 3.40739 25.0078 29.6247
1 24.8415 0.339093 22.69
1 22.3655 5.32585 20.7075
1 3.55649 12.9712 28.3755
1 10.7901 14.0959 19.2581
1 1.72716 7.46071 10.4514
1 25.5894 24.8834 18.4499
1 17.9477 29.8559 2.14676
1 1.12699 0.421437 22.4202
1 7.85199 11.4606 23.26
1 13.1809 2.47441 -0.419117
1 3.98077 17.5009 14.361
1 17.8039 19.5617 10.0148
1 1.23972 19.7818 24.6842
1 6.57737 27.0258 10.6575
1 12.5373 3.76544 -0.0781869
1 5.00209 16.3703 8.65311
1 16.9597 -0.00467768 21.0232
1 0.929985 16.5516 23.619
1 29.0162 -0.104755 1.04934
1 10.3554 12.3222 21.9666
1 12.5883 19.5015 8.3847
1 14.4065 24.1204 25.0882
1 3.94122 1.7352 6.30156
1 16.6085 2.72081 2.63842
1 12.645 1.87789 24.3211
1 1.16127 28.4522 11.9359
1 4.10002 7.63306 27.7864
1 26.4007 23.8364 9.23807
1 26.7222 8.77087 22.1632
1 16.148 20.4936 16.5106
1 12.7267 7.86711 8.08058
1 29.3239 7.68476 10.241
1 26.2422 19.9885 3.7172
1 23.2733 14.9661 21.6359
1 8.51247 22.6115 23.8986
1 20.5949 26.3814 2.8924
1 14.9794 13.7701 12.6124
1 17.7879 16.3532 23.229
1 11.7491 4.57589 20.1055
1 10.2451 23.1894 12.6161
1 25.5948 14.2346 22.3926
1 19.592 18.3444 23.6889
1 6.61577 22.6916 21.3425
1 27.131 1.14493 14.0214
1 13.7069 9.54412 30.0523
1 18.4027 2.87022 23.6236
1 10.809 4.67394 15.6566
1 27.8508 2.12019 8.42121
1 9.53459 25.296 3.67499
1 13.5793 12.8829 23.2193
1 2.39617 18.3098 29.4138
1 17.2074 29.3049 28.9753
1 3.66792 0.447915 17.5478
1 13.7251 22.9907 2.03922
1 17.6435 22.5828 25.5846
1 26.4036 29.5724 15.1009
1 23.554 5.82421 26.2571
1 10.9907 4.25374 1.81168
1 30.1307 1.54332 30.1805
1 1.3471 7.27763 6.78348
1 10.605 16.9101 8.74399
1 2.19199 21.8657 21.0301
1 1.54533 12.9547 3.03729
1 14.0255 27.716 14.4242
1 22.2345 7.36354 20.2582
1 16.2741 10.552 13.3668
1 1.84151 17.3612 3.9135
1 18.5234 16.2313 17.9873
1 2.89917 6.20304 30.2947
1 11.8942 22.4363 21.1531
1 14.8355 3.39079 1.15337
1 28.3237 27.8029 18.1726
1 20.4023 0.958312 4.53341
1 13.7802 6.63215 11.8277
1 9.02772 24.9058 6.10354
1 18.8961 21.7114 14.1129
1 13 13.0435 11.0526
1 7.43255 6.09451 28.9856
1 13.9095 1.20156 26.961
1 19.4233 29.1323 7.9003
1 22.3796 9.04667 12.5922
1 28.578 14.0328 12.418
1 2.1955 28.7461 25.3728
1 23.5618 1.40039 7.39054
1 27.7462 23.9539 17.7377
1 16.3741 12.7379 3.0301
1 7.88113 23.2026 30.0126
1 8.99609 13.0502 4.53854
1 5.86975 3.94037 21.9223
1 15.6664 19.4778 15.5153
1 28.7323 7.44738 19.8485
1 30.0243 7.04897 15.0223
1 22.1626 25.6495 0.320664
1 12.0246 24.5929 3.49119
1 5.13575 14.6748 21.1388
1 3.96886 29.1251 13.2856
1 5.08467 17.708 13.6514
1 11.9665 7.08783 2.23674
1 22.9029 7.07931 26.297
1 4.35547 14.3235 19.1399
1 27.5719 4.13164 29.0904
1 11.2655 6.13159 26.0323
1 22.8923 27.199 8.66399
1 2.03164 25.0352 5.01595
1 19.3073 14.9337 21.5999
1 2.11155 12.9868 13.4566
1 13.8117 2.53134 27.2426
1 0.261171 24.3343 9.54809
1 5.99133 26.9958 2.9666
1 29.2441 26.7349 29.8654
1 13.487 12.9057 1.99164
1 24.977 8.77017 2.65063
1 11.9399 10.5235 9.8235
1 15.4793 19.6508 12.1961
1 1.40063 16.4747 27.0512
1 20.1462 21.5295 8.06032
1 5.73411 27.7838 17.0351
1 6.14201 28.3576 2.31785
1 3.48469 29.8986 22.8272
1 16.3822 18.63 11.7028
1 6.5854 0.743671 14.6441
1 4.2527 18.6194 27.8649
1 4.67958 3.23521 3.43905
1 20.8926 7.79698 17.539
1 1.00557 24.2958 8.22875
1 19.2592 6.56504 23.7778
1 6.31727 1.95855 26.1224
1 5.99887 27.0486 14.5379
1 14.3717 24.888 1.01671
1 6.14013 11.4411 8.24934
1 21.6918 0.311569 14.1164
1 11.129 29.4105 2.20107
1 14.2084 28.1051 17.2736
1 20.867 25.9664 26.9063
1 22.8776 17.9243 28.2568
1 4.1663 13.927 2.17272
1 16.0987 7.47188 5.2789
1 13.835 6.73268 0.45277
1 3.15848 2.99187 16.4044
1 19.3421 11.2168 26.3697
1 11.1222 7.80922 11.6713
1 22.3317 6.12553 10.0926
1 28.3698 13.482 9.29688
1 16.3722 13.8086 26.1851
1 10.9956 5.90464 13.4883
1 13.4871 0.988894 3.17929
1 21.5957 6.2794 24.0621
1 17.9475 2.11675 6.9864
1 21.5528 3.75314 10.6979
1 18.5939 27.7318 9.78212
1 17.173 15.4829 29.4654
1 22.2339 8.75572 23.1554
1 21.8029 9.33829 11.4386
1 9.66912 12.4263 1.9477
1 15.7449 16.4751 27.7075
1 3.14923 19.0908 6.91698
1 11.6147 14.2074 15.1004
1 5.79096 8.14487 15.4244
1 28.1333 8.09653 28.9691
1 19.1941 8.43007 22.1129
1 8.34759 8.66592 25.4342
1 8.46329 16.2854 11.0751
1 1.52019 7.32187 19.2815
1 5.33051 13.1956 26.6106
1 3.02423 10.552 3.60388
1 11.435 13.4547 3.5909
1 9.64081 11.2523 20.924
1 26.8393 7.39393 1.45849
1 5.57259 8.63632 3.39766
1 17.2636 21.0411 8.53881
1 22.0752 12.2835 7.66556
1 8.99629 16.6368 17.0512
1 26.1624 1.47811 3.37519
1 28.9626 2.4894 10.7334
1 1.13948 12.4529 15.6341
1 10.8658 4.19451 18.0926
1 26.6169 12.3779 20.7811
1 24.7488 5.25029 4.42743
1 23.2789 17.6299 12.665
1 24.5718 14.1927 27.6113
1 22.4136 30.2893 18.2449
1 0.706821 28.3964 20.5422
1 5.94023 8.47874 17.714
1 18.3129 15.8613 13.7739
1 29.4512 29.4598 7.48392
1 27.8761 12.2929 10.0717
1 14.3903 22.2651 3.94943
1 7.10076 12.08 13.7256
1 8.87466 20.0472 9.41818
1 13.2219 3.86754 11.8854
1 17.4081 29.4121 3.69232
1 28.5286 2.04979 20.332
1 5.50694 1.92928 29.3278
1 18.2983 16.3897 11.4319
1 12.8965 10.8988 24.047
1 29.3053 1.15619 22.9482
1 0.0100787 11.0639 5.69808
1 16.2585 11.2951 22.8501
1 12.6178 11.8834 19.8741
1 20.8834 15.7384 7.2507
1 16.3671 27.1536 11.2064
1 29.8882 18.4204 27.7296
1 6.52642 4.49608 16.3525
1 9.69405 12.1115 28.632
1 20.4735 3.65678 29.0248
1 3.99918 7.21447 7.32676
1 18.6916 12.6402 11.2219
1 16.5462 23.2176 22.7815
1 3.68604 28.3992 23.3323
1 6.51301 29.688 0.362423
1 0.00149079 27.9043 21.6941
1 3.04803 1.59982 25.6519
1 1.44792 14.5108 1.42817
1 2.11119 3.00241 11.2361
1 4.7857 22.8173 5.38999
1 16.5274 25.2832 2.65969
1 7.70209 24.1153 8.61152
1 24.3847 30.1252 20.2007
1 11.1238 19.7779 7.93324
1 28.4277 10.8442 22.8133
1 2.99409 29.6861 7.09488
1 7.38764 0.651091 25.8236
1 13.9328 17.0927 1.40977
1 15.6686 1.7203 10.969
1 6.72569 27.5284 28.9366
1 21.6864 28.8003 2.4053
1 26.9512 9.28922 25.333
1 22.0987 19.0998 21.0696
1 11.8663 26.4176 15.2384
1 17.8559 1.28892 17.7527
1 24.0925 14.4888 15.8541
1 11.7694 19.1102 9.60208
1 21.1565 16.0132 2.06543
1 1.78546 20.0671 2.02366
1 11.1485 18.0576 29.3824
1 12.9398 6.27977 24.0538
1 23.0891 20.0763 21.4893
1 8.46827 21.4099 5.91272
1 8.51301 11.3138 28.7418
1 0.18095 26.4287 7.42571
1 28.0187 9.76303 26.282
1 0.727143 16.0483 29.9024
1 0.632585 10.3078 18.3964
1 -0.0724983 9.34537 9.2474
1 10.5126 23.3293 9.84308
1 1.00513 12.3882 0.332283
1 26.2865 8.40556 6.11932
1 0.373467 6.19676 4.46415
1 5.037 1.33392 23.7384
1 9.7312 5.51579 11.0096
1 25.9333 24.362 14.7675
1 13.3299 16.9451 10.7892
1 2.80936 5.22045 5.67573
1 23.4007 23.8129 3.15823
1 14.4139 13.3687 19.6918
1 2.13828 9.49271 28.1964
1 21.3574 14.4632 19.0387
1 10.1842 20.4701 29.8907
1 11.6752 1.67505 14.3436
1 8.28696 16.6272 14.7187
1 13.7655 20.5599 28.5123
1 5.75125 11.0617 3.74837
1 3.67534 2.53393 1.13095
1 1.69268 3.18729 19.7576
1 2.27542 22.4603 16.3651
1 6.77621 19.5873 17.3643
1 8.38217 3.01192 14.4207
1 7.1429 14.95 3.50223
1 21.4334 1.90038 19.6052
1 27.5601 28.6682 17.1332
1 9.0514 27.6555 28.0765
1 26.5256 9.77823 6.65581
1 16.7531 23.7501 6.16116
1 9.55873 24.495 18.8653
1 14.1723 14.0993 22.2489
1 22.0271 22.2176 9.42505
1 4.13321 5.76243 15.6995
1 18.3649 24.0335 1.30398
1 25.0426 13.3208 18.6626
1 8.94135 26.6653 19.6053
1 17.2564 16.5276 17.1288
1 17.9432 8.80516 11.2431
1 24.7223 18.1988 15.3692
1 14.837 7.83317 13.7219
1 22.5663 9.81823 0.799712
1 16.3692 9.18818 25.4855
1 25.3987 24.3394 27.2706
1 3.00862 27.5153 22.4405
1 27.8637 12.9279 21.2552
1 21.8112 29.4919 26.7637
1 1.01586 18.8208 6.09257
1 24.1411 7.36431 29.9327
1 5.29847 22.9148 16.3721
1 16.2969 8.61314 5.98778
1 1.76709 20.7298 27.7964
1 25.1881 27.0503 11.0435
1 1.17789 22.32 3.84578
1 25.1909 22.1302 13.9454
1 11.1583 21.1768 7.88658
1 12.6426 22.8607 28.3403
1 22.9238 27.9278 15.3644
1 10.485 18.1412 9.3915
1 5.90944 13.3368 29.124
1 23.7855 1.16575 24.7338
1 14.1272 17.4388 17.4242
1 28.9135 24.6081 6.82275
1 9.19664 9.60347 6.11603
1 19.5018 22.474 11.8373
1 11.1765 3.72796 16.794
1 9.84886 23.7899 11.2066
1 17.7015 19.8103 30.2814
1 26.068 -0.0785917 25.0033
1 23.1336 28.7204 24.5055
1 26.3075 14.1708 1.6345
1 17.4399 6.42312 5.76117
1 23.2395 8.2807 15.0944
1 0.827171 29.4925 23.1321
1 25.631 10.3827 7.88237
1 12.827 7.2132 3.39465
1 20.0973 2.48761 1.46529
1 23.863 9.41498 24.9605
1 24.3666 17.7702 28.8205
1 25.6295 14.3984 9.32149
1 29.4772 16.9355 6.41795
1 15.4699 19.965 28.3223
1 28.0949 0.313904 27.7396
1 3.56819 8.64231 25.6128
1 3.75373 26.1506 26.5503
1 13.3079 15.9458 26.8812
1 20.631 10.3593 22.1645
1 16.661 12.2483 19.4984
1 5.41857 11.1097 28.7916
1 18.4836 11.8356 17.717
1 6.17945 8.12041 23.3295
1 8.74788 21.202 2.71047
1 7.01782 22.4928 19.3352
1 10.5863 17.1396 15.2047
1 23.4779 27.8037 20.1125
1 26.1675 11.6752 28.0398
1 27.3087 13.3156 6.69986
1 3.2975 1.66575 21.8859
1 21.7631 25.8849 5.61133
1 22.0678 22.5217 27.4666
1 12.9337 18.1496 27.4152
1 15.6953 22.0182 27.3883
1 18.2653 18.6894 17.3343
1 12.4255 21.6739 7.71383
1 2.43596 5.56416 2.54289
1 29.2705 28.2984 25.7281
1 19.4788 22.8256 8.47609
1 18.6699 2.21053 24.78
1 26.7032 19.7379 15.2437
1 9.72694 1.8058 6.9339
1 20.2854 20.9456 27.1032
1 13.1393 26.6366 5.16259
1 8.62954 24.3666 14.3147
1 21.596 12.4842 16.888
1 12.6122 26.9923 2.85634
1 17.4908 22.7336 20.062
1 12.1393 18.3705 18.9113
1 17.6363 2.92793 28.1446
1 11.9622 6.92992 7.28654
1 2.88633 21.6407 27.0179
1 4.02549 12.3661 2.10064
1 6.46399 15.2662 6.0208
1 5.84703 24.0137 3.07685
1 5.24697 23.0069 29.4963
1 28.1923 6.11402 20.4818
1 28.6549 12.1549 22.1464
1 16.3264 17.4112 30.0923
1 3.1395 11.9249 14.2801
1 9.52967 4.08679 8.51155
1 14.2003 2.50502 21.1281
1 2.37986 25.4205 26.3395
1 0.921749 19.307 1.03522
1 12.8445 11.438 7.00863
1 0.123568 26.2407 18.1048
1 0.641059 1.94272 19.7348
1 10.5415 10.839 20.0198
1 22.3008 19.7599 4.41725
1 28.7651 20.7892 12.6229
1 5.10297 1.95495 3.56407
1 0.607151 27.9632 0.354477
1 7.08714 3.84646 8.76326
1 13.3795 22.5209 21.3967
1 27.9952 15.2486 2.79205
1 18.66 14.0987 18.7629
1 22.274 19.1669 17.7687
1 9.35184 2.39747 26.915
1 8.88681 18.2508 28.345
1 30.393 6.83779 13.5336
1 7.73651 6.57033 18.4133
1 1.47278 30.3031 27.0386
1 15.1035 3.8205 9.82676
1 1.04636 28.6119 9.37448
1 10.1668 5.11642 6.14785
1 3.72206 7.26008 21.9674
1 9.44908 19.4313 21.6471
1 16.2814 5.54903 21.6163
1 17.2557 20.0628 24.404
1 18.8093 27.5561 26.1901
1 30.0539 10.2581 25.2379
1 25.8481 21.0101 13.0364
1 9.23592 7.34381 27.4283
1 30.0214 22.3728 6.28318
1 5.72124 9.66032 29.6427
1 10.1855 5.41091 1.4099
1 8.38445 11.3406 20.3059
1 21.7984 10.0643 22.7063
1 30.2388 1.69381 24.4593
1 4.68638 18.2485 16.1267
1 18.0304 28.3855 12.5488
1 19.4288 28.6776 25.7091
1 9.45165 23.4867 24.5876
1 7.71235 27.1203 28.0396
1 21.0533 3.45737 17.7045
1 20.3018 10.0596 16.3038
1 20.7209 0.565146 2.33092
1 4.16947 2.81891 27.5211
1 27.5021 9.03457 27.3451
1 26.0295 0.598296 21.7109
1 16.1547 7.6869 28.0314
1 5.79914 7.61668 5.81788
1 5.31656 20.6782 19.7618
1 16.0455 18.2548 0.869395
1 16.8822 1.06741 20.1526
1 13.1055 20.2702 18.3848
1 18.3997 19.6313 28.0063
1 16.3239 22.0802 7.75341
1 9.05381 15.7675 19.447
1 29.1173 14.4808 2.45248
1 12.0011 15.0236 8.2779
1 28.2992 8.58212 1.17359
1 26.3104 30.6256 16.2639
1 21.642 3.05246 15.4735
1 22.1999 12.8497 24.5801
1 29.1658 20.5481 4.61656
1 1.19169 23.311 13.6565
1 1.30794 3.19337 5.06277
1 9.69254 14.8641 24.7627
1 3.86375 8.5005 5.25967
1 6.56228 29.261 3.33887
1 4.34181 21.6736 9.45592
1 8.38967 3.87985 28.9423
1 10.7011 7.40676 6.59971
1 0.415652 15.225 22.9735
1 10.9023 8.35273 0.661976
1 7.74684 16.1499 1.66954
1 25.9384 2.22799 14.4067
1 3.78261 3.70087 23.076
1 4.8977 7.27097 11.064
1 14.1281 22.345 20.3463
1 21.0335 1.121 5.82481
1 16.1804 7.31162 17.3327
1 25.6755 26.7398 29.2337
1 29.5579 3.82362 21.6633
1 13.4127 19.9106 15.9808
1 7.42942 26.632 6.53282
1 -0.00242007 25.2371 6.87887
1 23.1291 24.8085 0.309056
1 3.43293 18.7368 30.1266
1 20.8966 0.369729 21.422
1 0.436249 20.4303 15.8426
1 21.0236 20.876 12.3118
1 8.09424 9.47835 5.01427
1 6.84703 12.221 4.97221
1 3.55817 22.1459 28.4014
1 4.67357 18.1166 29.1011
1 12.0533 11.4898 27.9214
1 20.7997 5.45313 27.6622
1 24.0277 1.31518 29.9436
1 5.64619 2.25513 24.8702
1 1.46966 1.32111 6.63435
1 14.5036 25.6676 17.6916
1 6.01725 19.0119 22.8088
1 17.3419 28.1228 26.8414
1 21.2131 10.1461 5.4541
1 4.44197 23.6127 15.5087
1 17.765 1.11163 7.77241
1 8.63787 8.07139 30.2323
1 19.1386 9.97637 9.63453
1 22.3387 1.83001 23.3151
1 27.1701 24.1454 28.4991
1 27.8847 15.5392 15.1076
1 19.7333 5.14219 8.69636
1 0.999541 19.7491 17.8773
1 29.7757 27.9842 29.6532
1 10.1814 22.936 5.28248
1 28.0395 20.9078 21.2978
1 23.1655 27.9861 13.853
1 11.949 10.9511 2.74163
1 0.549539 22.8769 19.0487
1 17.2613 18.9193 1.25865
1 17.5248 16.9958 25.4287
1 27.4005 4.04028 23.6987
1 12.899 3.49367 26.857
1 3.73976 24.7986 16.1007
1 13.9244 9.86731 25.8633
1 19.9818 23.8619 23.879
1 7.44406 22.5829 26.124
1 23.8784 23.0333 18.4078
1 2.0953 12.7094 4.95695
1 25.4628 3.24202 0.294313
1 26.1219 22.2655 0.545371
1 27.0036 14.3717 28.8566
1 24.4582 11.5468 25.8405
1 20.4033 5.88885 24.6813
1 16.6849 23.2303 28.8294
1 2.53953 1.03 26.9741
1 1.67939 11.3764 20.1983
1 5.1634 4.25201 4.27908
1 0.746282 6.60222 18.3435
1 21.4 29.0858 10.5705
1 2.3594 29.2019 11.1965
1 15.4425 25.8911 11.4763
1 1.49143 14.1424 23.3266
1 21.0713 3.10854 26.8869
1 25.8936 6.01292 23.5193
1 14.7984 8.41953 25.3048
1 10.6033 18.5671 26.712
1 19.9795 8.91364 7.12903
1 4.94353 29.6441 22.5965
1 3.02855 17.5949 3.32303
1 11.1734 12.2325 24.5012
1 27.2487 4.65151 8.36069
1 9.96837 1.95675 2.8372
1 21.0766 13.8686 11.8327
1 22.7306 20.5324 17.6719
1 20.1681 0.884883 27.6313
1 9.30134 1.69791 25.5518
1 18.3978 28.271 23.3581
1 1.28484 23.5964 29.588
1 12.766 12.7771 7.92303
1 9.39517 1.40513 29.9145
1 5.72893 11.3055 10.923
1 7.71361 27.4292 20.0297
1 12.6587 3.63221 16.7036
1 20.2575 14.114 8.99123
1 3.24844 19.3826 2.22699
1 1.75904 6.97195 13.4648
1 18.3953 1.78088 22.3522
1 29.2875 2.26791 17.9861
1 0.411177 16.3154 20.5012
1 4.60757 16.2709 24.8457
1 9.3861 7.82329 2.32438
1 8.49756 7.25275 13.9219
1 26.9362 14.1583 5.31553
1 6.79677 27.5655 9.4569
1 3.18438 21.8549 11.2524
1 21.8797 13.4301 15.8255
1 24.5208 8.64391 20.6603
1 26.0366 0.687008 26.4756
1 1.50455 25.253 10.4983
1 12.5133 28.4735 7.35845
1 8.06163 24.5264 27.1993
1 1.30439 14.9371 28.9883
1 19.4607 13.036 19.3956
1 1.11346 9.24829 27.5813
1 5.1964 3.80363 20.8347
1 16.1668 24.731 23.1144
1 26.6942 17.2656 15.5658
1 11.9877 20.709 14.0572
1 1.98087 10.4952 19.1758
1 16.0269 20.3389 4.62338
1 12.3006 27.6239 19.0017
1 8.57497 8.79652 17.7298
1 13.7455 26.9545 22.4286
1 2.23498 25.9997 13.2807
1 16.8367 14.3456 21.7805
1 13.1138 8.88783 20.6292
1 4.80587 26.7472 12.382
1 29.652 19.6607 13.0235
1 0.799124 25.5521 3.44013
1 27.8433 7.92279 18.9587
1 10.6134 16.1054 14.2723
1 16.8845 1.29184 15.5293
1 12.2117 13.2751 4.91808
1 12.1318 4.99936 21.5888
1 16.2176 25.877 26.8182
1 21.6125 14.2968 9.34241
1 13.7208 10.5623 4.95158
1 28.9295 26.8789 26.0346
1 6.6881 0.806511 22.8463
1 12.0529 4.62056 11.4847