4096
Atoms. Timestep: 320
1 15.6948 11.4898 14.4719
1 17.1247 25.8568 19.175
1 16.0297 8.09531 0.939954
1 21.2366 7.93233 25.3147
1 0.609308 20.2685 5.34771
1 8.45569 23.1061 30.2792
1 17.7291 27.6611 8.62492
1 23.776 27.9099 6.36643
1 18.5816 0.944615 6.50054
1 17.1734 11.1246 0.43909
1 28.4007 9.40288 18.6835
1 24.9354 3.85058 21.3106
1 10.2133 27.8208 20.8036
1 18.2225 1.61255 1.74035
1 25.1082 22.6459 15.2884
1 11.3043 28.571 25.5066
1 27.955 29.2176 21.0761
1 5.20388 11.5674 26.8425
1 3.21011 5.99082 28.0716
1 3.47731 28.9454 15.8814
1 7.42061 23.9943 8.12881
1 12.0451 23.7882 15.492
1 17.6462 16.8455 13.3348
1 28.7079 23.0936 23.872
1 9.08796 6.85943 5.23023
1 28.1252 13.5182 14.2702
1 20.9262 27.2058 8.68203
1 8.79955 6.99693 14.1313
1 16.6869 18.1922 2.76398
1 7.73833 24.9064 26.2093
1 2.75528 23.5431 7.69222
1 5.61066 19.3432 28.6791
1 17.4439 18.2967 11.083
1 10.0307 13.5805 19.7528
1 29.8845 26.1073 13.0037
1 11.6802 19.7988 20.2043
1 2.61468 0.847884 15.6469
1 18.6142 24.8 27.3169
1 9.78534 17.104 28.7563
1 30.4223 11.9304 17.3081
1 23.7467 6.47289 19.0561
1 28.5495 17.726 8.22757
1 6.41594 15.7788 16.5586
1 23.9864 14.6922 14.1022
1 20.8773 2.52331 29.8789
1 16.2894 28.7866 17.076
1 12.8063 3.03692 20.5591
1 14.8205 3.18209 27.0491
1 7.50811 21.5403 10.1048
1 18.3015 28.2352 12.1747
1 15.7768 6.73142 5.56718
1 16.6776 29.4895 19.8256
1 8.99452 16.4095 12.7853
1 12.4928 3.98098 2.43571
1 4.589 24.2099 29.0298
1 16.1633 9.5116 10.8173
1 1.90123 11.1316 19.6224
1 13.6138 2.76196 30.1392
1 4.80201 1.02757 27.7262
1 25.8484 8.56924 26.9823
1 27.8086 1.81579 15.4978
1 1.09631 24.5352 15.0573
1 13.5997 20.1059 13.0652
1 7.50375 7.67449 3.49308
1 11.8611 0.700766 5.34792
1 15.7497 19.9348 6.86017
1 18.4104 23.5367 24.5178
1 23.4198 19.8915 12.0379
1 3.76666 29.7239 19.572
1 17.4392 3.86504 11.0743
1 10.9257 27.3578 27.4649
1 25.6202 6.40555 2.11813
1 29.7105 7.20707 4.87149
1 9.91445 29.1564 10.6651
1 29.3925 29.7022 7.6572
1 18.9793 5.2199 28.8054
1 10.6054 5.06425 4.18047
1 29.2136 27.115 23.0889
1 3.24681 9.66575 27.2264
1 5.91093 29.0491 20.207
1 22.3603 13.0458 1.95663
1 19.558 16.225 19.9595
1 15.9246 2.32079 12.1852
1 29.0416 22.8697 2.36779
1 28.1088 8.18255 4.93837
1 26.9894 27.0445 13.9068
1 16.1169 12.1878 26.2499
1 29.8418 0.884757 29.1718
1 13.0104 7.00455 21.4611
1 29.4885 11.2679 29.3073
1 20.9034 21.4781 8.30417
1 12.474 2.77907 5.80748
1 20.7156 22.8708 24.4044
1 28.6867 12.5749 11.4701
1 26.0602 21.454 5.99422
1 19.3327 22.8083 9.59714
1 24.2125 19.9726 8.62277
1 4.50525 7.54005 2.8297
1 21.4355 0.310155 19.1299
1 4.38533 21.9027 28.0431
1 10.8393 8.64814 6.9779
1 0.666526 26.9868 21.8976
1 11.2929 19.3841 13.9204
1 16.6977 1.63013 1.17679
1 15.8487 23.8486 22.1423
1 30.0491 20.3467 1.97505
1 2.70177 12.5037 10.8189
1 11.5771 29.1393 29.2451
1 11.2432 0.247115 15.4054
1 9.70366 26.3523 29.6323
1 9.49146 12.015 6.33096
1 10.8622 28.4222 18.1042
1 23.4367 1.66002 15.2826
1 19.675 29.0784 10.0372
1 20.2024 11.4577 22.2481
1 22.1551 16.3779 14.1773
1 12.2394 26.9221 11.8196
1 28.7655 21.5957 5.47321
1 12.9632 26.3113 9.98367
1 17.0573 9.91653 4.10971
1 22.7416 8.7522 18.2501
1 24.1361 20.5702 5.32235
1 19.9031 3.7039 11.7525
1 21.6749 25.3466 15.3389
1 9.30164 17.6631 0.388249
1 19.471 13.3326 20.9325
1 1.04734 18.9445 10.9452
1 18.5587 22.7754 18.4224
1 10.3161 19.6876 17.3681
1 4.52415 23.6937 19.1748
1 27.7191 16.9126 20.1876
1 9.95685 7.92247 14.3721
1 10.8796 24.3891 14.5968
1 14.7049 3.9334 3.14045
1 7.58197 24.4732 10.3898
1 21.32 6.56063 13.654
1 15.9229 4.69166 13.0192
1 23.7677 11.73 19.5428
1 15.0677 25.6517 27.6014
1 28.2825 22.6976 6.18922
1 19.4 29.013 2.2631
1 11.4353 22.0907 21.5798
1 14.5846 0.159343 23.1531
1 7.12476 26.0436 12.3321
1 23.2352 22.17 12.0329
1 20.575 28.5439 17.1376
1 1.39828 10.264 10.8768
1 23.0647 14.0435 1.30948
1 23.0305 9.00993 11.8509
1 21.8599 21.1269 14.5773
1 25.2808 24.6319 28.5119
1 5.42323 22.7017 1.27003
1 22.4043 13.2257 4.91524
1 20.1668 30.2381 10.5943
1 1.17191 23.6747 7.88707
1 26.6432 4.42561 11.4897
1 6.20274 17.1834 17.0046
1 11.6349 5.31301 25.6239
1 4.59965 21.9406 3.51784
1 29.268 12.8421 26.7645
1 20.7755 23.8591 4.16027
1 6.17236 25.9106 22.8523
1 3.11016 20.5838 13.4739
1 13.9065 1.2775 23.8058
1 18.1477 25.0507 12.6462
1 0.722267 11.2664 14.2903
1 18.0474 27.2795 1.36688
1 17.8708 17.0693 14.8843
1 18.2019 11.6872 16.5037
1 10.7761 14.4106 25.5009
1 0.201284 22.0749 29.1517
1 14.3425 8.05433 19.4745
1 9.6885 16.784 17.1927
1 27.6268 6.1985 19.9219
1 29.5096 5.77969 5.13981
1 18.8056 15.3364 22.1385
1 7.83145 17.158 9.66572
1 11.0666 29.0014 5.14996
1 25.823 18.1363 17.7059
1 26.7175 12.1263 2.04314
1 9.29454 10.9714 16.997
1 21.8015 15.1995 20.2498
1 5.21851 12.3311 21.4418
1 15.5272 28.0277 6.80351
1 26.0228 23.7386 6.16982
1 29.3472 5.80433 8.71584
1 21.0909 29.8592 1.05958
1 11.1908 21.8064 13.7266
1 23.7377 9.21732 17.1653
1 1.06865 5.74558 3.5417
1 17.5 20.4919 3.16282
1 0.371132 9.77508 25.251
1 25.4064 14.0872 19.7708
1 19.248 12.114 8.96454
1 19.4941 7.30068 20.7218
1 5.9907 0.429781 0.591578
1 4.4341 25.1202 18.7448
1 3.83718 8.73698 14.926
1 7.29555 3.82142 7.16017
1 20.2694 23.1982 1.00265
1 26.4639 22.911 26.3625
1 27.9595 30.0342 3.19886
1 19.61 21.5998 4.39974
1 10.7569 1.16804 6.22748
1 0.480278 18.4462 8.25746
1 9.421 12.224 19.261
1 25.2425 28.7505 18.4168
1 24.9721 16.8537 29.1253
1 28.8608 18.8232 20.0041
1 11.6835 0.654968 22.1353
1 23.2275 8.8206 5.46683
1 17.5495 2.71085 28.5012
1 18.0548 21.3752 2.01538
1 18.7347 5.50427 12.3386
1 3.50036 21.6955 8.29452
1 7.68786 15.9287 19.5124
1 24.6537 16.2863 23.2353
1 6.91368 27.6833 20.2783
1 4.25286 10.3893 6.03478
1 7.3682 11.9415 26.0829
1 24.9409 4.56719 0.67398
1 28.2949 14.7284 19.8442
1 20.5865 4.29585 17.7098
1 7.09145 20.6192 6.91071
1 23.2834 14.9553 7.8709
1 25.8864 15.4252 19.9656
1 18.4232 11.4051 5.69406
1 19.9886 29.963 24.9326
1 1.44341 15.4617 1.21991
1 22.6962 26.7148 23.6058
1 29.539 27.2704 21.9555
1 12.2093 11.737 9.99534
1 9.033 14.441 20.2572
1 5.39699 5.67029 9.4052
1 1.01674 28.5772 17.8013
1 0.31882 23.0212 17.5297
1 3.3635 4.30062 9.60773
1 4.3881 8.71195 12.589
1 20.9512 1.27673 5.62605
1 25.4235 27.9076 3.83859
1 15.6305 1.90439 21.5657
1 20.5716 7.44202 21.7205
1 24.566 8.74505 29.679
1 23.9482 6.93357 22.4458
1 13.172 17.7221 6.33025
1 12.5454 15.5646 6.11267
1 5.57807 21.4598 13.5634
1 11.1125 23.0329 5.22092
1 23.5003 20.6972 29.2917
1 20.3963 21.641 12.2492
1 28.1806 20.3549 5.55077
1 8.829 2.35121 12.0407
1 16.617 18.5197 30.097
1 10.9436 6.35331 27.317
1 5.95603 12.5758 6.9176
1 1.19175 23.9167 22.656
1 25.0613 3.69726 5.45893
1 4.98457 16.3654 30.1979
1 28.1049 26.0455 7.30516
1 25.9101 5.38776 15.4982
1 7.28581 10.8225 28.4008
1 11.3581 2.77711 0.747346
1 15.5024 17.4753 27.5388
1 26.9379 12.0001 26.5336
1 10.7827 16.6289 7.76572
1 6.89717 18.5795 12.9421
1 8.68882 3.91769 19.9817
1 4.06852 26.1471 24.0681
1 25.1839 28.0615 6.59902
1 3.63373 25.5748 4.45364
1 2.25542 4.71498 6.74934
1 11.807 2.50295 16.5603
1 14.2231 9.37813 25.5548
1 4.07742 17.6402 27.7611
1 22.0971 24.5572 18.5026
1 7.78111 15.3377 5.68872
1 0.757929 2.53967 7.17579
1 9.0879 25.6936 8.60357
1 8.30826 15.7753 26.0458
1 8.001 0.696824 25.8606
1 17.1853 8.5694 4.98481
1 25.1065 0.178522 21.7877
1 12.2975 9.37427 4.77493
1 25.9022 24.616 9.7873
1 0.157535 7.07331 15.6839
1 11.1333 5.06676 29.9626
1 20.3225 21.1788 21.2278
1 24.7585 19.1355 5.15622
1 14.7709 27.1708 7.3435
1 15.2304 12.7021 11.8612
1 14.3437 12.3764 18.5102
1 15.4498 17.1654 12.5743
1 1.75035 18.7925 1.99207
1 16.0431 14.7507 16.7224
1 27.1618 14.2823 26.1473
1 5.90567 12.6012 11.3911
1 13.1557 16.2725 27.635
1 8.09645 24.2412 2.41694
1 11.201 21.6044 18.993
1 22.1805 21.3224 8.23191
1 5.21765 15.9015 14.5085
1 2.47749 6.40881 22.36
1 24.2604 18.8117 1.73742
1 8.66638 14.624 17.1682
1 8.89518 16.3356 9.26161
1 25.7204 28.6478 9.07323
1 7.13592 25.0359 19.0398
1 1.18303 29.5858 1.30975
1 12.4337 24.3022 25.1243
1 13.3043 2.05118 21.6196
1 22.065 17.2091 17.1413
1 28.8691 30.1768 5.4538
1 12.9811 28.4996 23.772
1 27.1364 17.6316 14.1715
1 27.1756 10.3864 11.2743
1 13.3145 7.35162 27.8111
1 8.66179 28.9451 13.9712
1 13.3104 9.81962 21.9919
1 22.4803 25.687 22.7367
1 21.1002 14.087 20.4749
1 25.5167 15.7198 17.0412
1 19.9844 28.185 15.749
1 28.8586 13.6429 29.5651
1 4.67024 1.24058 17.9557
1 10.5787 20.3408 19.5875
1 11.2772 23.5488 8.45929
1 5.52102 24.0492 13.0259
1 18.8808 14.7559 2.04199
1 4.24585 11.7604 28.0998
1 13.9142 8.51106 28.5948
1 15.6324 22.7175 11.8004
1 13.2169 24.5936 12.6924
1 13.0383 0.776948 20.8627
1 27.8003 19.2752 1.94486
1 17.3229 4.98229 4.7699
1 3.402 24.5947 1.90241
1 14.4421 29.3395 4.42428
1 16.7978 9.75432 2.76648
1 21.0124 16.8939 2.16442
1 2.96993 23.6357 26.6779
1 28.0876 4.1823 15.5462
1 12.11 21.6459 3.01379
1 23.3797 20.8833 14.3718
1 29.0592 2.40243 10.287
1 5.12253 1.01343 25.4975
1 4.56331 5.44899 18.1086
1 1.73222 21.3921 24.1831
1 3.95764 27.0832 21.3417
1 3.80368 4.62272 12.0887
1 6.51975 13.609 3.37555
1 21.7328 2.23512 8.63603
1 20.9925 13.4993 28.2904
1 0.879299 17.3668 19.8231
1 12.203 10.6273 26.0166
1 8.16676 2.71846 10.2798
1 13.348 3.63769 25.219
1 1.37982 0.568239 18.0689
1 19.2486 20.4549 26.167
1 9.86149 23.7208 30.1141
1 18.4064 1.04773 9.13793
1 15.9232 7.81236 17.3057
1 28.789 23.7912 3.28133
1 21.6434 19.5549 17.0737
1 18.2538 21.7562 4.88356
1 15.7102 12.8654 14.758
1 13.5238 27.2906 27.5258
1 10.6974 17.5027 5.91853
1 21.2526 28.185 6.14349
1 6.43967 7.3311 18.0945
1 14.7213 25.6536 3.61005
1 10.9532 10.0438 22.0262
1 24.7275 2.37212 29.429
1 9.48166 1.62167 15.8684
1 28.9218 5.38816 19.9139
1 8.63435 14.6862 9.24975
1 10.595 27.1352 2.95512
1 28.097 11.5731 16.665
1 20.233 18.8141 20.6407
1 20.7972 4.181 9.41253
1 17.0074 23.1233 26.4474
1 18.6259 26.2357 16.7105
1 13.049 9.52264 26.5761
1 5.03454 6.05425 30.3251
1 25.6891 28.8229 26.9523
1 17.7441 21.6263 13.591
1 10.5837 2.43479 23.7824
1 1.68969 5.17582 25.6983
1 8.12109 1.62438 16.6667
1 13.0426 8.48321 18.6146
1 12.2521 28.6133 14.2619
1 18.9096 18.4997 20.3205
1 3.28684 14.4528 19.2213
1 27.4219 8.286 17.986
1 23.4571 27.9699 2.30317
1 11.0727 14.5244 9.39251
1 1.1424 25.3917 9.68677
1 17.7298 25.8645 5.1131
1 24.1101 0.673989 12.8722
1 17.2201 25.2872 29.7119
1 13.0936 21.9469 20.6875
1 8.73916 1.40413 28.7635
1 17.4865 1.98725 27.3417
1 20.8729 25.4468 1.3785
1 28.9195 9.9921 7.49958
1 30.0381 13.431 7.84275
1 3.53569 8.50822 21.1681
1 28.1587 2.34748 27.6849
1 4.28064 25.6613 11.7825
1 2.27749 5.29011 9.78983
1 4.18603 16.3983 25.5274
1 9.14135 19.6836 5.58175
1 7.75901 12.9692 2.61393
1 24.2233 11.2702 18.3258
1 15.9547 6.83096 27.3806
1 17.1792 11.1682 2.19602
1 24.9096 22.6759 20.532
1 7.88993 5.28863 0.964277
1 7.96534 2.38739 27.8661
1 5.64631 6.96591 21.1757
1 26.6978 8.51716 28.5369
1 10.8327 25.4068 4.6348
1 6.48697 0.461182 1.97474
1 13.0784 6.6684 5.25428
1 4.28133 3.76316 24.7746
1 15.1242 19.9149 10.9357
1 23.2923 3.36389 12.3545
1 13.5831 21.9242 25.4514
1 14.6171 19.1583 17.4101
1 19.9971 22.963 14.3515
1 7.38073 29.4907 9.48236
1 12.0341 23.6634 29.1958
1 19.7314 23.1324 26.4919
1 24.1183 27.3569 1.10533
1 2.2258 9.37794 2.55031
1 8.27301 27.3152 29.5335
1 8.5586 2.86578 22.108
1 11.3072 11.0396 15.3219
1 11.1385 14.1607 19.2246
1 7.23402 11.8949 22.4904
1 3.95672 1.27507 21.3857
1 11.7385 15.1538 8.26953
1 26.2305 11.7458 20.4238
1 0.501627 12.5514 4.9028
1 13.9059 28.6034 5.33451
1 14.0175 13.5079 11.8438
1 25.5212 8.50025 21.4296
1 25.1821 7.43546 16.9889
1 4.63441 4.66671 3.71888
1 5.49523 17.7453 8.65439
1 17.1646 21.6198 3.93802
1 13.1418 25.5946 22.9001
1 30.3316 6.94218 16.9799
1 10.2432 9.31519 26.8467
1 12.5715 1.86372 4.74953
1 6.63692 13.5284 4.80383
1 12.6461 11.0469 17.0804
1 16.6746 26.5227 1.49371
1 18.6155 9.68427 29.543
1 22.9308 1.65588 22.5614
1 6.00595 2.5497 19.2279
1 8.69402 2.15006 2.1174
1 5.99016 9.4405 21.549
1 1.0408 8.31056 28.3091
1 24.218 7.66632 28.7591
1 16.104 3.48721 25.0335
1 27.4771 15.1733 11.5835
1 21.7272 28.0323 25.3431
1 0.656388 5.05976 27.8877
1 12.2761 29.7284 15.1511
1 2.47633 22.6941 1.72017
1 1.91752 21.2741 2.04183
1 15.2587 25.6705 11.3317
1 15.5938 7.30515 28.5145
1 16.9479 19.4444 15.0675
1 13.6972 14.0278 10.1769
1 19.1559 16.5772 11.8262
1 10.0067 20.7608 16.4145
1 29.5782 6.88571 14.5734
1 29.4779 11.297 11.3199
1 14.2299 2.98131 17.5675
1 17.0047 2.87998 19.3301
1 28.7006 0.847696 15.8148
1 28.3926 10.8389 30.2687
1 18.5418 28.9697 15.4388
1 6.9729 6.38848 19.1853
1 14.8388 14.6182 26.3045
1 8.45059 17.6127 15.1904
1 27.7329 16.6775 16.96
1 13.3348 7.3359 11.1979
1 16.3742 13.7094 11.9214
1 2.10991 17.6339 16.3878
1 22.1595 29.4453 5.38331
1 6.52919 19.5208 18.1197
1 11.6135 20.3213 21.7235
1 16.9441 28.2768 4.75998
1 14.7033 4.49861 8.249
1 6.94222 5.45973 3.77548
1 26.7361 25.5582 10.0655
1 21.5124 13.1257 13.8291
1 14.3604 3.90869 30.0446
1 15.5999 14.1262 22.7254
1 23.9697 13.6153 16.4767
1 21.996 24.6703 20.1881
1 18.0582 0.409717 25.0027
1 21.5118 16.0559 11.0018
1 10.5447 22.6778 10.89
1 25.7408 11.8926 4.94758
1 3.09361 2.40951 7.92026
1 2.68687 14.1209 30.092
1 28.0289 2.04052 21.0469
1 28.9929 13.1967 1.89774
1 17.8157 2.03686 14.5334
1 12.7958 19.6675 2.07383
1 18.7685 0.67644 19.5609
1 22.3445 3.71241 27.6757
1 17.0157 15.6829 8.11669
1 16.7214 22.3851 6.75644
1 7.23794 23.2819 23.0098
1 2.08624 28.02 26.3574
1 8.97256 5.85381 24.6225
1 3.96658 30.1673 5.72461
1 6.94628 12.7482 19.9983
1 29.0861 21.0772 23.4471
1 6.3824 0.875647 3.21161
1 15.8934 10.8859 18.0769
1 5.35797 26.5422 23.7571
1 29.7205 6.52963 26.0918
1 11.0034 14.9194 2.01976
1 23.0704 3.31128 30.1703
1 18.609 6.35389 27.9919
1 21.0978 14.8229 22.9759
1 19.5836 30.3809 22.8022
1 18.2836 25.1442 18.8228
1 8.27687 26.3241 7.73337
1 1.84932 4.13305 23.5806
1 14.1612 18.6775 22.7989
1 7.74178 8.86058 12.5043
1 23.907 12.3206 25.3645
1 20.9713 26.8733 20.6892
1 28.9484 11.7286 26.049
1 5.11831 1.69836 3.0844
1 5.3938 14.5626 23.2151
1 4.70765 10.7475 7.27176
1 26.9211 5.5352 10.4582
1 14.6265 30.0098 14.5806
1 13.6213 3.25431 2.37796
1 15.8008 21.4199 15.1637
1 24.788 22.4141 12.3208
1 10.3238 26.8455 16.0171
1 19.6663 11.2703 13.5845
1 2.20661 17.4904 1.73903
1 14.4728 15.0925 22.4003
1 24.8203 21.6463 5.83766
1 19.3048 26.6236 23.3392
1 24.3459 12.1202 28.8443
1 26.661 25.6817 12.3109
1 7.39689 17.9659 6.78551
1 29.6395 7.75829 6.73175
1 19.9352 21.7805 26.9209
1 21.1998 2.92473 3.90265
1 24.1255 19.4617 17.4929
1 6.02544 11.2841 7.55429
1 25.8509 23.9512 29.587
1 3.50214 16.1912 11.0094
1 14.4743 11.5161 1.67623
1 1.76441 7.83614 2.10936
1 5.84067 15.1336 15.4056
1 7.50871 28.3325 3.01682
1 29.6282 3.74122 29.757
1 20.302 21.852 1.67449
1 2.30376 23.8561 3.82241
1 15.9039 0.603062 14.7364
1 0.494581 16.9701 22.8477
1 26.2651 6.65985 22.9575
1 15.3933 12.5727 1.17111
1 9.60977 26.3684 9.88819
1 15.673 24.4226 13.4679
1 5.45729 20.7771 10.5631
1 26.0601 26.8583 17.84
1 24.7814 2.42758 21.2994
1 6.58417 22.3311 27.0901
1 8.63799 23.4804 19.1097
1 7.5199 29.7245 7.01906
1 4.23268 22.3506 15.925
1 21.8108 10.8599 29.45
1 23.9727 29.8948 16.8643
1 9.23407 23.7193 21.3364
1 4.30777 27.8607 6.52837
1 29.9854 18.7727 11.3561
1 22.6834 15.2347 1.53555
1 28.72 20.4743 2.03791
1 30.1686 28.5852 13.5574
1 14.5992 0.298806 4.8939
1 11.2608 19.4825 4.18149
1 12.3195 2.24835 27.0005
1 0.480186 14.5308 26.5292
1 20.3635 4.81777 21.7237
1 10.3204 7.31453 19.8736
1 10.1141 20.211 4.65197
1 15.798 27.6211 18.2226
1 3.86811 0.136476 30.1866
1 20.693 24.8875 10.3663
1 12.1228 21.6215 18.1054
1 3.06811 23.2557 21.187
1 4.19844 14.8845 25.8951
1 16.4521 24.9997 8.19083
1 28.5556 14.1298 26.4563
1 14.2835 21.3815 15.0155
1 10.4931 3.50237 7.30222
1 15.2532 6.81796 21.4023
1 26.7879 20.2274 5.54127
1 23.0441 16.3747 26.1442
1 11.0249 0.793863 30.1615
1 11.8014 22.6732 1.83143
1 12.6829 19.2236 8.61918
1 13.1067 22.6542 18.1712
1 7.98975 6.63172 21.8218
1 11.9583 21.8815 16.5724
1 23.1889 21.7279 17.6526
1 15.7593 20.8066 27.2933
1 3.9807 20.0382 22.1736
1 24.6865 5.09571 10.1787
1 10.125 9.16734 22.2948
1 19.2191 9.20303 18.1562
1 20.3366 2.48252 10.8545
1 24.0528 29.7956 12.0909
1 9.98405 23.0387 12.1882
1 20.0692 7.06162 7.33878
1 30.3 25.7343 29.4563
1 16.4466 1.59341 3.56278
1 21.4627 25.7754 10.98
1 4.73305 23.8691 6.33505
1 15.9192 17.0746 15.8851
1 6.76792 10.9904 8.87676
1 19.1812 8.35155 11.0816
1 15.5187 5.52062 26.856
1 29.1317 1.69815 4.30165
1 21.2895 5.53836 24.9309
1 9.23705 13.2039 10.7928
1 7.44065 5.08697 16.9219
1 25.2743 12.5087 1.81024
1 16.4385 17.0111 10.3022
1 29.5837 3.34475 9.16774
1 21.186 12.8452 7.5651
1 23.7109 16.7844 28.7547
1 21.0792 16.5711 20.0216
1 4.23917 8.68929 0.299781
1 8.76238 28.7242 11.4036
1 3.85999 26.3229 6.89048
1 23.032 3.12747 6.82447
1 12.7537 24.7587 30.0729
1 13.5375 8.28389 29.9828
1 11.0218 19.1948 11.2443
1 23.9561 25.2254 10.1513
1 14.4705 8.38463 12.1199
1 17.9392 9.99655 23.6932
1 11.149 10.2086 25.028
1 24.1101 0.699329 4.73017
1 14.6665 4.76298 4.70645
1 6.20892 11.3509 3.18605
1 29.4766 24.7245 27.2197
1 12.996 20.9727 11.6768
1 24.995 5.47619 18.2196
1 4.43993 15.095 5.26
1 5.94324 24.0429 1.71443
1 1.70476 16.6126 26.0458
1 7.72331 28.0455 21.7676
1 10.7004 21.3267 10.77
1 2.93025 6.0256 7.32864
1 12.9264 8.49707 16.0611
1 21.8336 24.9831 27.3099
1 6.73879 22.5668 5.73758
1 4.88779 10.9404 25.6178
1 3.70285 19.6251 16.2916
1 28.1904 15.0783 8.13244
1 9.01451 4.00869 5.64009
1 21.3028 15.8396 28.4645
1 4.08567 9.15957 16.3691
1 26.6264 0.956792 0.250709
1 9.26607 12.6351 25.4188
1 29.113 20.1424 8.38351
1 3.10904 22.3105 9.56932
1 11.0467 8.21244 23.0554
1 7.14086 1.95404 14.5936
1 18.6182 5.51677 16.6515
1 21.8973 16.824 5.17671
1 11.1113 24.0613 2.11053
1 1.05895 2.73002 3.76387
1 20.9367 4.0217 3.14353
1 21.1101 7.30881 0.760832
1 14.0768 28.3286 16.3033
1 5.96557 22.2234 8.40893
1 4.70546 20.7831 1.59378
1 17.3702 17.4493 17.5452
1 13.6384 20.1666 10.619
1 7.27257 29.5246 25.9158
1 2.14671 29.4545 26.7305
1 14.0845 17.2965 12.0319
1 8.60714 8.49794 17.1309
1 8.66768 21.7481 28.0541
1 5.40064 1.31587 8.91728
1 22.6193 7.96682 25.8003
1 30.4021 19.7182 8.18514
1 16.9857 19.1863 18.9585
1 6.08376 1.76696 18.1821
1 2.62281 3.36125 21.3231
1 9.29044 20.7254 3.49207
1 11.5593 17.3982 8.68251
1 21.2407 29.961 20.271
1 13.781 5.22867 29.6301
1 14.5483 26.1918 13.4988
1 19.3665 3.73333 23.1876
1 18.145 23.893 5.75803
1 4.93223 4.77009 29.8729
1 13.7847 5.05752 10.6505
1 11.817 25.0644 26.1467
1 6.2523 7.79219 12.3349
1 21.5322 10.6151 27.8564
1 14.6329 9.47246 0.154309
1 19.3778 1.32538 1.04381
1 28.9975 9.64548 14.2051
1 14.3922 12.5367 29.4028
1 6.92944 8.33375 10.1204
1 18.7101 22.1685 28.9191
1 25.6066 7.78577 29.4548
1 9.97913 6.68646 10.5345
1 17.3101 3.30083 9.59452
1 15.8761 21.253 6.1933
1 13.5236 19.1536 25.2117
1 26.0386 6.47512 14.5599
1 14.9068 11.3663 11.7351
1 2.67731 7.03122 29.4109
1 13.0233 15.9235 0.216889
1 2.6881 15.1325 10.5882
1 15.4822 10.5575 7.72825
1 11.2302 9.13185 17.7731
1 25.9156 7.776 2.29332
1 20.544 8.75455 14.5295
1 4.35388 19.4423 28.7176
1 12.2526 9.36205 11.0772
1 0.724773 1.84772 17.2404
1 0.463457 13.1776 27.1959
1 20.7474 14.8085 26.2405
1 6.32736 14.4095 8.46614
1 3.58358 20.1797 0.602964
1 30.0168 3.08537 15.898
1 5.71857 3.90218 13.7178
1 15.6227 21.8528 4.81778
1 0.943642 13.8529 1.62642
1 8.59712 16.9725 16.4747
1 30.3892 7.44074 28.0892
1 3.23687 5.6484 2.14328
1 3.69663 11.1563 14.2461
1 15.123 3.40493 13.2889
1 16.3333 19.8136 24.1207
1 29.5305 2.09168 5.75807
1 24.8857 20.1917 11.8059
1 26.487 16.6391 8.23149
1 20.256 26.2818 24.0922
1 23.972 1.61559 20.6159
1 27.755 2.43158 12.546
1 12.001 2.99818 19.3934
1 15.3263 10.4615 10.6493
1 7.90777 9.82342 23.2624
1 10.5491 16.4762 2.26674
1 9.44534 19.8687 19.7493
1 18.5554 19.2176 14.6533
1 11.6101 7.78221 12.8306
1 13.3661 21.8744 4.00811
1 24.9824 25.1212 20.5876
1 2.96744 1.4245 30.2428
1 26.8272 8.06887 16.652
1 15.5136 8.98993 16.7644
1 20.1149 3.18363 17.3949
1 6.19229 16.0558 0.170345
1 17.7248 8.91408 18.5913
1 27.4189 10.2896 22.1912
1 14.9352 13.8476 1.37706
1 12.6604 28.8605 7.60118
1 26.3087 13.2837 26.2956
1 5.27566 29.3286 17.8621
1 12.5367 18.4099 26.3194
1 23.2302 29.2563 0.843445
1 0.623385 3.94234 5.07593
1 21.8202 12.7781 20.5472
1 19.123 27.5273 27.106
1 2.91049 16.9964 25.3673
1 8.763 4.00106 1.43648
1 3.24221 27.4937 25.978
1 5.88839 29.8723 26.2556
1 26.78 11.4687 21.8785
1 1.0936 13.2943 7.97118
1 5.54953 23.4003 5.23684
1 21.6159 22.0933 21.9588
1 26.2039 1.72639 10.0588
1 29.5088 5.79413 16.9675
1 8.98498 10.864 14.6261
1 3.45755 5.14073 22.3336
1 27.2621 27.0351 7.71653
1 5.61646 26.9438 5.29451
1 20.0646 18.3673 6.10382
1 23.7512 5.65464 14.7042
1 3.60785 27.5819 16.3509
1 18.3295 27.0371 25.9017
1 25.8541 10.9183 24.3411
1 20.0132 15.5568 22.5463
1 5.92696 28.0344 16.9108
1 27.3034 7.76312 22.9283
1 1.1807 29.5473 27.9014
1 13.0062 21.4843 7.29295
1 20.0575 16.9597 8.03462
1 4.59893 12.4927 2.11055
1 11.4171 16.9961 3.46551
1 26.2888 10.0127 1.47007
1 26.1063 25.6529 17.3677
1 2.76866 26.8507 4.597
1 7.02452 8.79923 4.17622
1 19.4043 26.6215 7.1093
1 20.4151 3.88125 20.5704
1 7.8666 10.6082 25.5743
1 1.67604 11.6748 28.9905
1 29.8518 11.5763 4.37939
1 2.97862 24.3886 8.8564
1 3.36068 16.0688 22.6478
1 23.2735 5.99885 26.3145
1 26.1781 3.86889 0.776251
1 4.57783 0.627906 24.0917
1 18.5886 4.18726 8.84147
1 0.151305 29.78 15.4011
1 7.82166 14.7443 10.8654
1 20.4699 2.02776 4.4641
1 23.8237 22.7319 6.03317
1 14.615 12.6588 16.8851
1 24.81 10.8138 28.2352
1 26.6573 8.24059 20.3235
1 7.69674 28.117 28.1113
1 6.1217 21.9249 18.2883
1 10.9564 17.2651 17.0737
1 27.4995 27.7572 24.7463
1 16.6006 25.5659 27.243
1 24.6988 29.8079 4.92216
1 7.6611 3.87407 25.0993
1 29.4857 0.405197 14.8242
1 10.4414 13.6079 23.153
1 15.4533 6.43906 15.2596
1 18.5328 8.11795 29.8868
1 21.6456 3.0068 14.6015
1 27.7445 28.3571 16.3512
1 4.52533 30.2674 1.08511
1 1.974 10.2987 9.40009
1 10.4795 19.7325 7.55241
1 16.8389 24.2674 15.5213
1 12.3249 16.3995 22.7723
1 26.8937 18.8197 11.2967
1 3.13346 3.38479 18.0535
1 12.6119 12.6316 23.8177
1 2.68832 13.8211 27.9482
1 0.403519 5.26182 16.3313
1 21.4433 19.3502 11.6876
1 11.8828 10.3912 14.1676
1 25.722 18.0016 14.5621
1 22.1419 8.41906 12.6764
1 3.20499 11.3988 22.5472
1 10.8843 7.58437 25.1506
1 26.8974 22.0806 1.95554
1 5.51149 26.7902 26.4911
1 25.5281 17.8545 20.4357
1 23.6779 27.4989 28.672
1 4.55131 27.8112 26.3672
1 28.3795 3.67068 0.197556
1 5.57807 18.7488 23.6299
1 16.8064 4.55505 7.28589
1 0.869463 18.7548 19.8364
1 21.1417 4.46506 0.997508
1 27.3817 23.9644 3.38018
1 28.8885 0.35739 17.2405
1 30.2529 17.9583 13.9889
1 16.6317 14.8267 3.01772
1 20.4043 28.3511 18.6338
1 13.4561 21.6188 16.2704
1 4.39957 10.0849 8.65775
1 28.9127 26.7904 26.6926
1 21.3293 17.637 20.7294
1 1.78669 28.7102 6.95337
1 14.0581 17.6166 10.2847
1 26.8869 4.33357 15.188
1 2.18583 10.3823 16.9408
1 5.49518 25.4373 12.5512
1 16.7741 17.0574 30.1388
1 29.1108 18.6655 23.148
1 28.367 4.55486 26.383
1 23.1236 14.3361 29.008
1 20.0788 9.81567 15.7475
1 21.3206 14.0884 8.39197
1 16.5407 28.0898 14.4215
1 29.4798 8.47497 9.97089
1 11.8213 4.3863 28.7042
1 22.0998 28.9937 27.7611
1 13.0829 15.3193 23.2339
1 26.9448 11.4676 30.1692
1 29.5569 11.2705 7.22453
1 29.9052 16.2333 10.8218
1 8.8341 20.3779 27.9612
1 27.5793 0.90455 17.5492
1 6.32606 10.3824 29.4473
1 3.46418 13.0853 0.246741
1 13.596 20.8059 24.7122
1 29.1745 3.09126 12.7538
1 28.9517 17.1757 20.1843
1 2.85479 7.30619 27.956
1 23.4917 0.591497 14.1923
1 11.9786 14.3036 28.8606
1 7.73136 14.409 7.97972
1 9.59805 20.1404 22.6996
1 9.08124 19.6134 17.9249
1 21.4692 3.38666 22.8051
1 21.1665 9.27072 28.0563
1 22.0001 9.7197 30.1338
1 7.41911 8.66125 17.8039
1 22.783 25.5288 29.6759
1 25.0687 23.2957 2.30782
1 10.3852 26.5021 26.5186
1 14.2678 25.1863 17.0098
1 18.3761 17.9285 25.3647
1 8.81254 17.8686 7.20131
1 2.34093 1.9496 4.46239
1 2.47557 19.2719 26.0206
1 22.4288 26.9414 8.76868
1 27.3307 22.6098 14.6786
1 1.02566 25.3763 16.3218
1 12.6323 7.51543 14.8145
1 22.8649 15.7472 28.9229
1 12.6906 21.0031 5.97732
1 14.4666 17.261 16.0424
1 26.3837 22.6265 20.6145
1 17.0874 27.6807 29.1638
1 21.8087 4.64071 22.5728
1 21.3683 25.1217 23.1784
1 25.9639 3.60823 28.0145
1 9.59755 9.45363 6.13393
1 29.3313 11.2427 22.9629
1 5.13467 7.77149 18.5419
1 6.59927 5.7576 8.307
1 7.03533 18.42 5.41814
1 3.9541 29.9844 23.4008
1 29.2014 29.091 28.8029
1 28.3585 10.9474 20.6175
1 13.3335 16.715 4.08189
1 5.4945 11.4737 16.1
1 14.8844 11.9221 4.90885
1 19.6977 27.8489 30.4191
1 27.8634 27.4575 23.3453
1 23.0431 10.092 9.97015
1 28.9992 16.1005 29.4947
1 29.9696 1.99647 11.0951
1 19.2837 28.6124 19.419
1 7.50729 9.74333 19.8453
1 17.3267 24.2872 27.4269
1 0.965083 21.3387 10.9744
1 2.93383 3.00586 2.40673
1 29.2429 2.55811 21.1579
1 11.0288 0.870563 13.8891
1 9.61838 24.1222 23.9905
1 1.40311 16.5776 2.01652
1 18.1426 15.7711 15.361
1 18.9467 15.2446 16.5868
1 19.6456 6.33708 19.7623
1 19.5973 13.2964 4.41386
1 18.7864 4.55454 11.2022
1 15.3421 10.2449 17.136
1 4.87639 26.465 0.364978
1 12.7586 4.22058 5.95099
1 25.0286 29.5993 6.72486
1 14.9636 0.347696 6.16003
1 6.82082 6.76999 2.82261
1 5.55342 14.5787 19.1607
1 17.3715 6.7632 27.2301
1 15.4053 28.1576 15.9643
1 23.7481 4.61243 29.7887
1 5.46117 6.72135 2.2839
1 5.08625 26.3374 19.3351
1 5.05885 14.7827 27.0296
1 29.0704 27.4658 2.00335
1 4.12375 18.7678 6.02565
1 9.6689 10.8681 13.2139
1 14.1596 7.69878 20.9167
1 17.7483 10.0363 28.5026
1 25.3189 6.24271 20.6365
1 28.3607 18.0766 17.2297
1 14.8071 27.9098 10.0238
1 14.0968 22.3555 21.6621
1 2.19237 26.2344 28.8316
1 2.68111 28.477 4.79583
1 20.0015 29.1182 23.5858
1 28.7135 4.77183 22.4966
1 29.9361 2.62948 3.55387
1 26.6519 29.6408 26.0752
1 23.1671 6.85059 21.1831
1 23.7484 27.2782 21.2303
1 15.0683 8.6349 2.86586
1 15.7621 8.09897 5.09962
1 30.2142 8.69515 21.1719
1 9.08749 18.7852 14.5621
1 8.97621 11.491 23.8394
1 9.27374 8.50978 20.0572
1 20.2202 27.2658 5.2699
1 15.7099 18.4025 12.9704
1 12.6864 14.2592 19.9686
1 25.5297 10.5911 25.6507
1 20.8644 12.3185 10.9234
1 30.0104 6.79171 9.78694
1 21.5747 4.88778 2.1722
1 25.925 5.55172 9.60528
1 24.1922 6.4434 25.1087
1 21.9481 17.8042 1.95113
1 4.40155 23.1706 21.6557
1 3.61224 8.79264 4.52767
1 12.9501 15.7244 25.7019
1 4.65777 4.37997 9.22383
1 6.22448 10.6827 12.2848
1 2.49335 19.0323 4.55056
1 10.917 28.473 2.51982
1 15.9976 12.4662 28.9558
1 23.8215 15.7215 4.61513
1 7.96044 9.35636 25.9458
1 3.07241 21.3393 30.1238
1 27.6736 3.05234 10.1943
1 10.8867 1.57989 3.72786
1 29.4236 15.6537 2.2161
1 23.6386 1.84873 18.1428
1 18.2112 22.3533 12.2384
1 16.0861 10.3313 6.53302
1 27.6699 27.0864 27.3747
1 28.6383 2.86981 15.8262
1 28.3691 21.7779 17.3526
1 10.8501 22.1391 8.19298
1 30.0499 26.081 2.42257
1 25.6674 1.54504 8.57691
1 1.52383 11.0836 8.24823
1 25.9948 0.870521 25.7332
1 6.95551 27.3053 17.7799
1 27.8914 18.9231 14.3871
1 2.60563 13.8756 4.76053
1 4.32984 9.20082 3.19399
1 29.9699 28.0656 2.72357
1 7.82687 18.2737 28.8989
1 18.827 4.4143 1.1845
1 20.4819 8.88567 18.6254
1 12.7895 0.943217 8.90774
1 28.6726 1.52289 28.6442
1 7.38185 28.7764 10.6588
1 7.61494 26.5898 14.3904
1 2.11534 16.706 19.5178
1 19.8697 30.2303 17.119
1 11.4103 30.2431 1.27145
1 6.62779 20.5837 16.2764
1 17.7845 29.9431 6.53456
1 10.8795 8.42958 27.8632
1 21.813 11.0194 17.0076
1 20.0855 0.944066 18.6898
1 25.5557 26.8257 29.2793
1 21.46 16.571 8.13263
1 20.7804 0.782318 1.51085
1 5.2948 29.088 22.976
1 29.1248 29.7613 1.03411
1 4.97039 23.5584 4.04618
1 14.7306 14.8999 29.3543
1 25.2507 2.63104 10.7477
1 18.3367 6.46395 4.61921
1 29.1047 22.2297 27.1479
1 13.0035 16.3226 2.65743
1 14.447 18.5527 19.9957
1 29.7777 29.3415 6.4791
1 21.3203 6.37418 19.7748
1 1.72885 22.988 21.6535
1 17.3147 12.9583 0.232345
1 12.4967 25.2892 27.3862
1 8.60073 18.9805 26.2205
1 19.6552 24.0304 16.2612
1 24.5021 12.6641 22.7888
1 18.8067 25.1352 5.69079
1 21.9199 23.0234 28.8003
1 26.0759 8.12344 6.57934
1 16.4134 15.4638 15.5137
1 21.7193 6.78191 21.104
1 20.1495 2.4084 18.5484
1 8.33138 7.48053 26.7039
1 0.694968 10.6009 19.8958
1 1.83772 5.5615 28.9322
1 30.1992 1.58183 21.395
1 27.877 2.40204 4.09967
1 1.20911 23.9104 18.1585
1 16.084 27.6605 11.8484
1 8.99723 18.1972 25.05
1 18.5631 2.3698 26.6325
1 27.5877 0.9287 23.7669
1 14.3558 27.6267 29.4505
1 3.04921 22.3694 26.1495
1 24.8329 0.298878 8.80836
1 16.5703 29.9957 21.3099
1 9.17422 19.1293 30.3647
1 13.3224 0.730678 29.3935
1 25.2546 3.99338 8.08531
1 20.658 0.37294 7.84776
1 6.28055 11.0938 13.7489
1 22.9965 28.7547 15.0557
1 25.7024 11.4402 13.768
1 8.32943 30.2224 4.42322
1 23.7489 4.50292 21.1543
1 10.427 25.0694 26.6468
1 12.6639 14.0036 24.037
1 9.58382 0.166795 10.0239
1 7.23999 11.4821 5.47091
1 5.51151 20.9988 15.1146
1 8.80506 4.5961 25.1197
1 15.7149 14.9223 11.942
1 0.931055 15.2321 29.7413
1 26.8962 7.39405 7.57163
1 16.7207 4.67384 14.2177
1 23.0813 27.7668 22.5877
1 7.19941 20.8729 21.7392
1 3.40428 17.4404 22.1319
1 10.731 12.9757 0.32109
1 10.7178 9.94169 13.3748
1 27.2871 27.697 0.735447
1 0.255205 24.1625 6.3464
1 6.08501 21.793 9.86658
1 18.936 15.5829 24.8433
1 17.8679 8.46581 24.068
1 20.8275 25.2484 4.22113
1 30.1026 27.8775 14.782
1 16.0135 21.3182 9.17005
1 17.2241 22.3489 1.60836
1 20.2962 26.991 27.5392
1 16.8162 7.24072 11.062
1 5.21275 28.7546 28.5527
1 7.26747 2.69808 24.6232
1 16.8792 28.4851 24.8597
1 1.82334 12.5635 19.8949
1 20.0464 23.2495 18.406
1 30.1157 9.63557 22.387
1 16.2499 16.4752 1.24394
1 15.2464 29.8347 12.5004
1 16.1147 9.08745 14.4605
1 4.27243 4.10737 18.9024
1 5.37584 0.927623 7.32302
1 24.5494 23.7124 18.0917
1 8.81074 5.41189 15.0825
1 25.6943 4.98437 7.30205
1 1.69483 18.2361 7.96645
1 8.58443 4.94074 29.6733
1 30.1586 28.6303 15.9682
1 16.4564 21.2961 20.4178
1 9.56318 30.0721 24.1904
1 8.53971 4.8479 7.78108
1 9.43724 29.571 19.4634
1 19.2941 0.348586 27.9638
1 12.0553 25.0916 1.29723
1 9.70779 13.296 27.7284
1 3.57016 24.32 3.62869
1 2.60703 29.1407 1.67044
1 13.6798 28.0535 8.20497
1 18.6901 3.0608 29.5541
1 13.8157 29.5866 6.8111