4096
Atoms. Timestep: 900
1 7.93658 12.2501 17.3789
1 18.5832 29.0413 9.90194
1 23.2976 18.3013 20.5488
1 21.7576 13.8132 12.8307
1 25.718 3.11412 17.1208
1 6.44795 28.3698 17.5218
1 21.3501 19.0031 16.9942
1 21.7937 22.2943 30.3617
1 7.58603 7.79335 16.7317
1 8.99943 13.4478 10.6815
1 12.3986 12.5518 12.5945
1 3.5944 1.24542 22.0773
1 15.8902 18.1136 4.68509
1 25.0194 29.1352 9.99557
1 29.5883 21.1732 21.5378
1 27.9746 24.9306 29.1349
1 19.7214 28.3124 27.735
1 2.39516 24.8698 12.8013
1 21.6821 25.8427 8.17534
1 22.3143 10.792 16.1468
1 6.52506 10.112 15.0601
1 27.7533 29.7052 27.5898
1 24.7785 4.39669 29.7707
1 9.59204 29.507 16.6119
1 11.024 12.992 6.14487
1 1.2492 9.07106 11.0761
1 19.8823 12.3387 19.7555
1 29.8954 28.3497 10.0488
1 13.5167 29.2657 2.82198
1 26.6035 7.81715 18.0216
1 25.4153 14.4968 10.444
1 2.02446 29.9135 6.20501
1 20.9838 5.47608 3.69626
1 29.2612 9.56886 12.4017
1 17.5099 5.42601 24.6616
1 1.30384 8.31776 2.46783
1 19.1445 17.2902 11.1588
1 4.22719 29.4389 2.3275
1 25.4015 21.4681 7.69177
1 28.1048 7.68132 8.37953
1 3.66812 20.058 7.33545
1 11.6781 21.1014 21.5586
1 10.2405 9.97063 4.84878
1 11.7356 19.416 0.229546
1 11.2741 18.9899 25.6733
1 0.57135 10.6314 20.2162
1 13.1103 27.2643 30.2859
1 10.5272 7.47492 3.60362
1 10.3329 18.1115 15.4979
1 1.33876 12.2774 29.3227
1 9.00011 16.146 27.7979
1 18.4385 19.8078 8.7628
1 7.30406 10.491 8.54411
1 8.59758 28.5035 11.8717
1 23.0111 29.2591 15.0404
1 21.7262 7.40402 6.58174
1 25.4308 15.9355 5.56523
1 9.39415 25.547 10.8666
1 28.2822 28.2372 21.4212
1 27.3162 4.57708 0.659552
1 29.422 3.60782 16.3594
1 15.9882 13.0221 2.50282
1 14.709 27.6807 18.3271
1 18.0489 22.8867 6.10939
1 23.6736 11.9378 23.1363
1 14.5976 20.8351 24.1289
1 17.9768 26.8865 5.26721
1 27.9342 13.4634 10.2972
1 28.7437 8.54456 24.407
1 5.92335 25.4861 8.72123
1 27.6437 10.1101 25.2797
1 3.20509 0.575655 6.11887
1 27.8604 20.4245 2.54437
1 3.58991 7.23618 2.31031
1 29.9185 16.9451 12.6156
1 10.7512 5.8269 12.2119
1 26.9468 11.1015 11.7395
1 19.3324 18.4436 13.8041
1 5.36731 25.7368 12.0991
1 1.12549 7.55015 25.0953
1 10.9885 28.7669 5.48357
1 10.7965 19.2192 10.4822
1 7.33334 24.3816 28.1437
1 16.6593 29.8624 7.76837
1 18.861 27.9365 18.4235
1 18.5664 4.73419 12.3612
1 20.8358 11.7079 11.1628
1 22.7265 12.9911 22.9697
1 1.653 3.14919 25.3189
1 3.46563 2.93726 6.8203
1 4.32227 30.012 6.9625
1 12.7269 11.59 17.2111
1 23.3622 17.9751 13.7152
1 6.1268 30.2299 28.612
1 15.5959 0.342052 4.26467
1 4.4783 12.6396 8.38049
1 9.97839 21.7982 19.5064
1 25.7521 13.8276 17.3441
1 28.3473 27.0643 28.1178
1 13.8089 24.357 7.1212
1 29.4566 16.9633 10.1217
1 15.1046 8.66779 25.046
1 22.2588 22.5412 12.4429
1 12.9076 15.0745 16.6901
1 28.5128 9.09932 21.8194
1 4.30899 8.07971 27.7875
1 23.9254 15.6951 26.76
1 16.4405 15.2694 27.9742
1 6.9418 18.6985 12.0873
1 19.0685 20.2504 17.0822
1 29.0212 24.6226 4.68123
1 14.1847 26.4678 29.1881
1 12.0454 11.4282 25.3825
1 2.42456 12.7428 2.65817
1 10.9652 2.87316 23.3861
1 14.0168 16.4886 2.36564
1 23.9643 8.53308 28.9335
1 20.529 28.2762 5.60671
1 12.9715 14.5159 9.00233
1 13.41 15.0379 0.436223
1 4.81437 28.545 20.4367
1 9.15572 5.55644 17.5315
1 29.7429 17.8032 27.9258
1 11.6764 28.3454 11.0166
1 12.8298 23.0182 27.3227
1 13.4456 6.25534 13.397
1 7.24389 4.29734 1.04488
1 10.9281 0.255431 22.6418
1 19.1305 19.5543 0.376626
1 28.1896 4.28695 14.5484
1 0.859719 21.4679 8.14204
1 20.1962 29.6391 1.43832
1 16.2708 4.69552 19.6693
1 13.866 3.14582 1.14457
1 22.308 14.0187 11.1449
1 12.0678 28.4137 23.5537
1 0.686383 10.8998 24.822
1 9.28373 20.0778 28.0584
1 27.1057 3.9628 4.17878
1 17.7798 23.1892 14.8336
1 21.4138 16.4937 15.7674
1 29.9669 24.3628 25.7659
1 15.0164 11.5385 11.208
1 17.4354 4.05567 24.8914
1 14.9141 13.7561 24.4627
1 3.71634 27.3185 24.3916
1 8.29794 23.2388 20.5547
1 10.5268 14.0712 9.11767
1 11.574 27.9677 14.7031
1 11.7662 30.009 29.9529
1 28.2339 9.155 28.4787
1 12.4718 28.38 28.1682
1 17.7873 26.4544 20.1853
1 25.8495 3.2357 4.28572
1 17.8113 5.98477 15.0318
1 8.77312 16.2832 14.8509
1 8.54288 3.67234 29.5432
1 19.5954 8.52344 26.1356
1 19.9185 14.0196 16.7421
1 12.9688 4.22906 26.1044
1 15.0547 10.0497 8.24133
1 27.779 7.60022 4.8931
1 6.14885 23.5622 21.5807
1 3.55248 11.2411 29.3758
1 23.4761 28.9153 27.1248
1 11.4596 1.31443 27.5283
1 27.3086 5.12902 13.9658
1 16.7566 7.95719 27.8159
1 21.4838 7.97814 4.09374
1 29.8082 17.824 23.581
1 20.9042 0.709363 9.25152
1 20.9374 10.3288 2.89939
1 9.98077 10.9352 30.0336
1 2.37091 6.40013 23.5823
1 21.7926 29.7006 9.65959
1 8.5233 15.9034 26.2558
1 20.5176 19.2435 10.2404
1 18.9458 10.5297 26.5115
1 3.13839 1.3086 1.22321
1 28.4459 24.113 8.22558
1 4.06276 30.0882 18.1046
1 26.3872 29.5322 22.3087
1 23.7387 9.57989 19.4437
1 19.7199 29.2389 10.9632
1 12.2358 17.0533 25.3507
1 24.7441 6.17551 4.83667
1 29.0132 29.7862 15.0863
1 22.2246 24.4622 11.6728
1 24.7 7.23769 8.41391
1 21.9095 5.22715 19.7115
1 20.3227 10.3054 29.286
1 10.8755 13.0724 4.81426
1 15.714 13.4572 8.64053
1 22.8644 8.33522 0.635894
1 23.3346 18.2202 27.215
1 3.70682 13.5368 12.2881
1 28.0158 9.53862 24.1665
1 13.7159 12.2787 10.4816
1 12.3222 9.77666 12.3988
1 7.95677 20.5723 13.8955
1 15.5318 16.7921 20.82
1 28.421 20.9764 25.2707
1 18.879 13.4671 0.566207
1 9.91247 4.35963 27.4597
1 0.404513 0.23404 30.222
1 14.1338 2.55732 16.1774
1 22.8428 20.9955 2.21326
1 15.3003 14.8805 5.89472
1 6.92492 15.5195 12.8063
1 1.72614 25.5138 1.39856
1 27.1502 12.009 13.8643
1 16.9158 21.0016 15.3598
1 4.2219 25.6615 5.27304
1 29.6849 26.7466 24.332
1 11.8175 7.21683 27.7551
1 29.1831 3.4534 4.65641
1 7.75262 12.3223 13.2674
1 2.83584 14.6353 19.4636
1 16.4814 0.737151 3.31396
1 13.5227 18.2495 10.7309
1 12.9521 7.09987 19.526
1 6.99861 15.4458 26.4936
1 14.2867 21.951 14.944
1 1.50978 9.56374 7.28075
1 5.59835 13.488 25.513
1 9.42975 17.7731 25.2438
1 19.6278 15.3203 27.8373
1 25.0992 19.6061 19.5808
1 17.7951 10.1095 5.28028
1 2.168 6.5727 15.1983
1 11.3057 22.0961 13.9364
1 25.012 3.96871 5.04414
1 13.788 0.252351 26.9702
1 19.9921 14.3405 21.2015
1 6.46577 3.21204 14.8466
1 22.9487 2.2935 4.33001
1 9.8455 27.3641 1.99914
1 9.38618 25.9369 27.7423
1 9.36168 1.55625 12.809
1 25.5294 13.3023 28.6893
1 9.48343 28.1703 17.0798
1 26.3587 6.46295 2.75338
1 22.5046 28.4623 22.4938
1 10.9826 30.1866 21.3096
1 1.15027 28.1994 19.1948
1 13.6517 14.2818 4.28782
1 28.2585 18.842 11.6478
1 28.0174 12.2765 20.3297
1 6.13383 7.47407 9.96081
1 7.69254 27.1248 23.0534
1 8.97645 12.0699 6.503
1 3.77312 12.0306 21.039
1 17.7991 28.9116 3.43646
1 21.8898 5.2593 28.8402
1 23.092 6.43263 12.51
1 20.7661 25.9543 16.6515
1 0.851747 29.7723 28.9897
1 23.2782 11.0069 15.1802
1 11.8482 26.4686 12.2019
1 24.7825 10.1581 17.1178
1 15.9488 13.3553 3.93395
1 25.6893 12.9102 5.67106
1 22.0023 27.949 0.802845
1 4.34893 2.1123 14.0183
1 18.2899 2.76992 6.15576
1 4.1409 5.42037 15.7066
1 11.5445 26.3339 8.16323
1 13.0404 14.4459 1.68933
1 27.5384 26.2964 5.6659
1 11.2002 22.5621 1.74065
1 1.23966 12.2256 20.5402
1 4.12692 0.580303 13.6811
1 6.82806 5.41579 0.315025
1 25.7091 5.70698 9.41786
1 4.56437 4.02683 28.1818
1 29.4425 10.1205 28.6654
1 10.5875 13.3087 10.4472
1 16.2689 7.60649 12.0134
1 5.38532 14.4023 1.36818
1 19.8045 21.9145 24.819
1 6.80778 25.6812 10.8709
1 13.6455 17.3775 16.1829
1 0.340019 13.4957 12.0347
1 27.9645 10.326 15.2358
1 29.9848 7.82031 30.3635
1 29.6848 1.05581 25.0477
1 19.154 27.9324 14.1424
1 13.3364 19.7945 14.1939
1 5.32602 27.5365 15.0122
1 22.5866 21.8863 29.0671
1 0.399622 1.00196 9.69295
1 3.0574 28.1494 25.4403
1 14.7623 17.9477 4.12798
1 28.0453 14.6347 19.346
1 20.9906 29.959 16.3586
1 3.10261 4.8866 5.61563
1 20.7037 3.49531 16.4733
1 24.3572 14.9597 25.4723
1 9.93986 23.851 3.48015
1 29.1119 12.8257 22.2147
1 0.729589 20.9463 28.9682
1 4.66789 11.6693 2.74358
1 7.21967 22.909 30.1459
1 10.8603 17.6275 25.1276
1 19.2419 11.7256 27.6899
1 5.27176 21.2511 17.1667
1 29.082 20.7163 14.8035
1 13.5583 13.7845 24.5223
1 24.2533 28.8259 28.0502
1 26.7579 9.94274 2.08108
1 19.4142 17.7942 16.3734
1 27.619 14.2679 3.45818
1 2.59644 4.99232 12.2537
1 7.93477 23.3082 6.07133
1 25.7841 13.8969 13.1125
1 23.2483 2.73982 25.5164
1 12.081 30.2163 16.1178
1 14.7776 10.1103 11.8303
1 12.4455 25.122 19.8761
1 3.96793 24.8116 9.93944
1 12.9158 19.1231 13.0687
1 12.9055 14.6935 14.207
1 13.0207 12.7792 23.3115
1 6.33559 28.6123 6.32622
1 9.59687 18.9073 11.0896
1 23.5374 14.2685 6.27583
1 30.3428 12.0974 1.31538
1 9.31134 13.3538 8.38973
1 25.4619 26.1705 12.264
1 23.8202 12.5338 7.37759
1 23.3032 23.0487 4.94229
1 28.2849 29.1828 5.26311
1 4.66643 14.0548 29.321
1 15.5594 11.1436 20.5938
1 19.5328 12.6701 11.4633
1 25.5591 23.7335 2.86309
1 26.4468 23.9877 21.9182
1 30.0825 26.7137 4.55305
1 8.02129 3.30676 0.510841
1 4.34931 11.6863 27.3015
1 8.99422 30.104 23.4799
1 14.5849 23.3849 26.0241
1 9.93815 22.0216 17.0872
1 22.6663 28.0284 12.9432
1 10.6148 2.70131 25.8898
1 25.0147 28.9329 13.5449
1 25.1458 12.9384 8.57299
1 13.553 19.2039 11.8795
1 29.0903 15.2805 27.9663
1 29.2969 19.8444 21.7929
1 26.0977 1.6956 28.4185
1 5.41067 24.8928 17.8984
1 4.84436 5.72415 7.68444
1 29.5067 25.2933 26.7545
1 3.16972 11.946 26.6115
1 29.7788 12.4782 15.2973
1 4.46024 2.90129 16.4175
1 7.99691 3.08986 8.31017
1 10.6249 30.3597 2.04942
1 25.1303 15.6535 4.22796
1 10.0745 20.5167 12.2369
1 17.2987 8.82598 4.7133
1 3.97696 1.54509 28.7382
1 22.8004 17.0212 0.659484
1 17.1302 20.9529 10.9551
1 9.18979 29.7714 19.9675
1 4.89577 0.305422 3.00117
1 26.2163 13.8348 3.06701
1 7.47003 12.4498 22.0714
1 6.53539 4.78202 5.23652
1 10.0585 25.2362 9.72747
1 23.9989 26.9849 9.31689
1 7.73384 15.3356 8.66963
1 17.972 1.42061 8.75325
1 28.0855 8.6225 14.6922
1 4.96725 26.9363 6.55122
1 1.68019 11.2129 9.49341
1 13.2569 30.3085 24.5668
1 28.5305 14.5805 9.6072
1 25.8898 7.1907 8.7087
1 30.0167 16.3646 28.5924
1 19.8515 8.61279 1.32996
1 23.3352 15.1232 12.9503
1 21.5247 0.972405 14.0337
1 18.7325 14.5255 2.80134
1 13.8959 12.2905 16.5517
1 25.3359 28.1659 2.87422
1 1.32575 26.8881 1.31955
1 26.0275 11.446 21.2946
1 2.30302 20.0951 4.65842
1 17.2717 4.71573 3.55078
1 23.7719 6.13226 2.51858
1 2.90569 24.8436 19.2185
1 17.6371 28.9975 24.4412
1 18.547 14.6307 14.4299
1 14.2146 28.2851 1.87765
1 2.91407 15.768 7.45812
1 21.9416 17.5569 7.60856
1 3.85503 17.8256 19.4755
1 29.3388 22.6894 1.99056
1 14.5137 28.4172 20.0528
1 25.3763 0.777315 27.8204
1 25.4659 14.9566 23.2649
1 18.9878 27.4821 12.7365
1 25.7826 27.0458 11.3325
1 11.1444 27.4275 11.8819
1 5.93496 24.1448 8.90151
1 21.2287 11.5069 1.10982
1 4.99576 8.87642 1.0896
1 18.2636 1.18057 19.4868
1 8.04484 9.93231 22.8879
1 28.8034 19.6644 2.12088
1 3.39681 8.71073 25.7193
1 3.57813 19.6404 12.9129
1 17.3919 24.1284 25.8476
1 3.64601 6.76335 27.6985
1 1.63229 3.18407 15.8674
1 1.54291 27.4408 25.5125
1 26.0035 11.1035 24.1886
1 2.76516 12.8031 13.1246
1 14.392 11.4702 5.55042
1 11.4659 1.86452 0.659467
1 5.57714 6.95401 17.9065
1 7.09196 5.98285 19.9142
1 7.88538 6.36436 8.35287
1 0.267662 23.3369 8.08256
1 5.70701 12.0824 3.68806
1 9.31408 20.0762 21.4591
1 24.139 16.5744 19.3742
1 2.7681 22.6049 14.9272
1 1.96774 25.2011 20.4143
1 16.0614 24.5464 16.0698
1 3.28832 6.15337 18.37
1 30.3505 15.8064 0.835505
1 5.03996 17.3954 19.0634
1 24.8778 24.0936 7.0209
1 6.54596 25.7386 2.93962
1 12.8324 21.8615 22.2604
1 29.2513 6.03531 24.5329
1 10.8973 15.5409 15.2893
1 0.819253 28.7306 8.03304
1 10.1901 6.00998 29.968
1 8.56595 1.09083 13.8387
1 21.1235 16.4028 26.022
1 7.72696 6.40705 28.095
1 26.1934 16.095 22.0112
1 0.645638 18.7578 19.4471
1 6.47225 0.571601 14.8294
1 25.4885 9.92982 9.86282
1 21.6605 20.0471 1.79835
1 29.2778 1.10021 9.0403
1 25.199 26.8559 2.18664
1 15.0243 3.8769 12.2241
1 15.4989 14.4598 23.4404
1 7.13442 2.47717 20.9214
1 0.705744 19.2811 13.1588
1 8.23204 17.1004 25.4934
1 16.8091 19.2015 19.2744
1 25.6816 8.20449 15.3968
1 16.5519 29.599 12.9722
1 6.23486 7.15515 11.4582
1 4.81192 11.7786 15.0181
1 29.7486 26.6486 29.8959
1 24.362 9.365 11.9147
1 25.3321 23.1537 26.9724
1 25.8732 13.6155 19.9673
1 10.3554 30.0947 29.3616
1 8.29097 25.0517 7.6969
1 11.9045 28.0185 9.32622
1 14.6921 18.3767 17.6958
1 26.0043 20.1877 12.0577
1 7.1279 14.1615 8.83022
1 4.06562 29.744 15.4937
1 19.6605 24.7126 26.1323
1 8.22843 2.58982 18.2801
1 25.2283 30.245 24.5529
1 28.5696 0.737763 3.67631
1 0.341526 15.9377 17.2816
1 0.840881 24.8604 17.4533
1 30.3265 12.0639 8.06051
1 6.10123 13.2102 28.0256
1 16.4125 15.7328 15.6225
1 20.1102 28.8621 4.09116
1 19.7713 7.72942 21.9629
1 22.4171 0.313476 24.0691
1 2.89805 0.716674 29.2882
1 19.9195 13.1673 8.00248
1 17.0858 0.875136 15.7931
1 3.74524 2.28114 4.56767
1 20.0661 25.9353 22.4288
1 27.4817 22.6815 3.72979
1 27.6054 28.6064 24.1836
1 7.49562 5.35125 17.1434
1 10.1872 19.8163 25.3763
1 25.9477 3.36016 8.64196
1 18.9149 23.404 18.9681
1 15.397 23.3404 24.8979
1 1.51596 27.6007 0.254656
1 7.3642 5.21513 3.33611
1 16.5045 9.36042 27.0924
1 25.6958 27.1898 6.78167
1 19.3156 29.7989 7.39036
1 19.8899 21.9727 1.50646
1 28.7277 0.812067 20.9687
1 13.104 25.0811 15.6467
1 10.8151 6.14024 7.53234
1 11 10.6128 25.5432
1 16.0862 5.34695 9.19233
1 14.5301 6.63042 29.9816
1 12.3124 7.46811 17.1116
1 12.124 19.9557 17.5257
1 21.225 21.3757 20.9238
1 12.2188 3.59476 11.5627
1 2.13562 0.223501 10.7741
1 0.502807 16.6706 1.8503
1 6.70521 28.5851 3.37294
1 21.6456 2.17142 22.1746
1 18.0496 17.0856 22.8611
1 7.90971 10.6741 4.12043
1 9.19762 19.2908 3.9375
1 24.1605 23.703 23.5982
1 5.08383 24.8137 10.8414
1 16.3492 4.29323 15.7685
1 29.5724 11.4602 4.62358
1 13.8056 24.1733 9.93101
1 21.6556 7.95058 19.8559
1 12.7389 5.64685 3.62457
1 3.82307 27.2709 10.3494
1 5.56128 0.567127 18.9145
1 24.0379 25.8953 24.5994
1 18.2507 3.58982 22.4231
1 13.5134 10.2574 28.9436
1 15.6425 0.869469 10.2028
1 5.587 0.833766 0.923394
1 27.3222 1.38862 4.1402
1 23.6039 30.0446 3.70067
1 19.1306 20.426 2.88313
1 12.7695 22.239 13.2971
1 0.624098 18.1702 6.60678
1 1.44594 12.6641 11.6092
1 29.8272 22.4006 3.19009
1 8.7144 10.5295 8.72074
1 15.0773 22.3535 9.49288
1 18.8548 21.7835 25.9039
1 15.1131 7.2266 25.6298
1 25.0718 8.62273 27.8461
1 16.1445 15.8857 10.5279
1 2.79782 1.25749 11.2989
1 11.9494 29.7278 23.7629
1 8.71604 25.9283 16.7644
1 8.38753 30.2444 15.9513
1 5.40401 24.6037 30.3203
1 5.68815 12.7714 15.8136
1 14.4367 29.5923 23.8337
1 4.82954 17.0377 1.64265
1 7.31175 0.880004 13.7477
1 30.0978 4.61596 1.54192
1 28.8187 5.19978 26.7801
1 12.0097 12.9003 25.6778
1 14.0836 1.73785 30.1949
1 3.98396 3.70094 23.5765
1 27.5072 18.0837 16.3794
1 18.1271 27.6594 7.90594
1 6.25175 9.8977 9.18538
1 28.3437 12.0095 9.61733
1 25.6324 0.282004 30.0167
1 19.9684 0.181339 10.3543
1 18.5985 12.8604 8.82759
1 20.7944 5.02204 7.79197
1 11.3291 29.6604 11.5426
1 7.25699 6.89202 17.8619
1 10.8428 29.3216 3.07668
1 12.5881 27.1381 7.10952
1 20.7214 5.00533 1.00572
1 25.1241 26.045 19.5971
1 11.8039 1.94241 3.41201
1 19.4517 13.3056 10.2397
1 4.15013 13.7657 25.8671
1 21.4745 22.7746 8.02856
1 23.7236 10.0443 28.617
1 13.1716 5.90178 29.5267
1 25.9836 5.73904 14.8214
1 17.633 2.33221 12.8349
1 20.152 4.16203 2.2255
1 5.56611 28.4864 23.8209
1 21.2545 3.28419 9.54699
1 4.15529 9.61984 10.8258
1 16.4318 21.8967 27.5742
1 0.343386 14.9779 19.5791
1 25.6438 15.2673 24.8261
1 22.2929 1.64753 15.9199
1 9.83827 24.0862 25.7767
1 20.1407 21.5442 6.42822
1 10.3073 0.193193 15.1683
1 6.73013 22.2936 12.4553
1 5.77775 3.2231 28.0841
1 12.5644 12.5152 18.3134
1 20.2642 11.6972 17.4596
1 2.04837 26.7302 4.55953
1 20.3511 26.1356 19.6067
1 5.84614 18.5051 19.3727
1 21.0074 3.62284 25.6449
1 22.4073 7.58886 28.531
1 11.4299 9.63542 11.2072
1 6.64595 20.7434 17.1359
1 26.1619 9.167 5.94037
1 14.7922 3.48025 9.74322
1 4.70346 11.437 12.2181
1 7.09032 12.34 23.5512
1 4.41557 26.6256 0.892881
1 21.8367 20.2865 11.9064
1 24.3445 19.2005 1.7407
1 15.9451 7.65392 3.13479
1 3.71078 25.3983 17.3861
1 25.0757 21.1729 26.439
1 9.34528 2.38208 21.2276
1 24.7812 18.6019 22.892
1 3.51019 6.68108 4.77345
1 29.7851 0.23414 13.8199
1 21.0838 18.4781 24.932
1 26.7103 18.3343 4.22667
1 1.19436 19.4106 8.76985
1 16.2385 3.42952 24.7147
1 21.5446 10.3934 30.3548
1 17.7014 10.1647 16.6383
1 15.3892 5.49027 22.972
1 5.55723 27.9454 29.3529
1 11.8164 19.6794 29.1732
1 27.602 30.1685 7.65313
1 23.3198 3.93379 22.1083
1 25.0826 29.717 6.492
1 15.6499 26.0084 7.95662
1 15.1919 21.98 21.6719
1 9.04501 14.9128 28.32
1 12.6821 18.4367 19.0385
1 8.04968 26.7655 15.7318
1 6.77841 23.191 29.0188
1 11.3144 24.3851 9.55426
1 2.93897 11.1211 19.1384
1 7.48459 2.91354 26.9203
1 9.64629 13.733 27.7013
1 22.7102 30.3545 0.33676
1 26.9553 26.2137 8.23764
1 2.89929 17.0378 7.27479
1 4.00981 21.0802 13.0679
1 22.0492 4.45403 3.727
1 20.7973 16.099 22.5911
1 29.7783 10.5407 29.9961
1 24.1354 18.3418 5.57915
1 12.2569 22.1025 29.8065
1 21.6088 17.1917 19.1917
1 23.8726 10.5391 11.785
1 17.4402 1.82265 27.8386
1 27.0514 28.9303 7.65003
1 21.5885 16.344 8.52852
1 9.77425 24.802 19.8911
1 10.8629 28.0298 20.196
1 15.1423 18.6899 9.06652
1 13.1989 26.0897 0.835811
1 13.2031 4.7969 13.6261
1 9.76805 27.5821 22.6549
1 6.58901 25.8359 6.23471
1 18.2527 7.97452 29.5425
1 5.56185 13.9691 0.24748
1 15.4366 28.8456 27.284
1 1.4013 21.2858 1.30773
1 26.8017 3.2684 19.5865
1 29.1921 8.52705 13.6576
1 13.1518 9.52491 15.8627
1 8.36024 0.252876 20.9595
1 27.724 18.0374 18.6926
1 23.8694 21.4406 1.06263
1 17.0072 28.3081 22.0668
1 24.0696 10.5228 30.0795
1 22.8037 8.05266 6.17143
1 1.87515 21.744 28.2317
1 10.8038 23.446 14.4641
1 7.85575 16.2038 19.6991
1 7.20082 15.6596 20.7148
1 21.9075 20.2216 16.2031
1 30.0877 29.5258 7.3047
1 29.1208 11.9613 16.6782
1 20.1516 3.61358 10.4077
1 4.19694 5.67074 21.969
1 2.51203 7.76608 25.9056
1 11.9538 0.463706 1.19162
1 17.0389 20.7211 29.7803
1 13.1788 10.8608 27.756
1 11.0834 26.2154 18.1865
1 11.4634 18.8217 13.5769
1 8.00028 18.6486 29.6044
1 29.3336 29.5263 1.76427
1 18.6804 21.287 16.5884
1 11.9947 12.4135 8.8556
1 30.1961 22.5436 23.9942
1 4.40116 10.7802 20.8562
1 2.60477 11.0223 17.784
1 25.4452 9.56052 7.12192
1 8.32762 7.83345 2.67052
1 19.6825 18.9782 25.2582
1 1.08353 24.7681 8.35885
1 4.7099 1.59483 27.4558
1 21.8683 11.479 12.0108
1 26.2278 5.67665 16.259
1 5.60738 12.3722 26.6397
1 4.31014 27.4372 13.8987
1 13.6727 19.0891 9.43429
1 4.24742 29.8199 8.50531
1 9.2041 17.0475 7.69563
1 25.8385 9.83561 4.63172
1 9.81784 4.83654 9.56365
1 18.1431 28.3057 23.1722
1 1.24305 0.218768 22.5064
1 14.172 21.4985 4.38813
1 2.89281 29.5576 2.75952
1 5.56077 20.415 29.1347
1 3.42333 9.36983 3.27339
1 29.528 14.6124 26.623
1 10.6734 6.86588 8.70142
1 24.7729 8.64303 8.25054
1 4.21474 22.1716 14.0314
1 9.02701 3.98765 8.36733
1 29.9244 21.6066 19.1216
1 29.9827 27.3244 10.9807
1 23.9513 8.08028 23.0612
1 10.1528 29.0262 7.95106
1 8.9413 10.9087 10.2079
1 6.32455 14.6473 24.1129
1 12.2921 8.20143 6.82916
1 29.8895 5.62463 18.2972
1 13.0724 21.224 25.893
1 19.41 10.3354 13.8936
1 20.6563 5.76407 19.4892
1 20.3978 29.2088 23.2069
1 1.90033 21.9179 9.00972
1 10.6507 7.85556 25.9966
1 0.983773 7.86561 10.2621
1 17.4451 24.5433 0.617059
1 17.9719 0.788416 14.7117
1 17.7383 25.491 6.45818
1 13.0426 1.97886 16.6653
1 29.5139 26.9762 2.03266
1 7.59033 30.2312 28.6971
1 30.2588 2.12329 17.3181
1 26.4755 22.9761 15.9304
1 5.885 15.1031 15.15
1 2.70192 28.4835 21.2529
1 1.88227 6.16743 18.1606
1 13.7931 22.7715 17.0491
1 1.80767 7.22662 12.6814
1 21.7667 6.19909 9.73606
1 22.2074 5.87557 25.5924
1 15.6378 8.67732 16.0532
1 18.6311 12.2212 21.9974
1 27.2538 2.1653 22.8038
1 7.35847 8.69142 22.3773
1 1.13373 2.67631 26.7056
1 14.7121 21.5448 7.26704
1 27.6496 4.74493 17.934
1 13.8209 5.24971 26.352
1 21.3019 15.0066 2.55936
1 19.8051 16.3162 0.508934
1 8.91616 16.3382 5.33864
1 21.6846 10.0126 12.5224
1 22.7011 7.11613 23.6346
1 8.05157 19.8971 24.0508
1 3.89136 1.53495 2.43527
1 8.72036 27.1225 3.91713
1 23.7946 3.07866 9.52453
1 3.23842 23.8278 12.2961
1 28.9339 3.4207 13.609
1 4.79337 4.89809 23.0848
1 16.4329 15.8259 26.3729
1 9.28689 4.97762 5.50694
1 9.07617 24.5488 16.5142
1 18.5791 16.0855 0.986389
1 26.3807 12.4501 29.4873
1 3.04486 16.6373 23.2476
1 7.2506 19.9916 11.5255
1 1.14613 8.87329 28.0221
1 8.5482 14.5747 20.8058
1 13.7353 7.06867 14.4226
1 10.4351 12.0853 19.1759
1 30.09 3.67651 6.98803
1 26.9763 7.89161 9.04038
1 21.7762 6.13703 12.6666
1 12.445 19.5732 21.3451
1 20.9659 8.39382 17.4748
1 5.11647 4.09661 20.1821
1 0.170172 13.8123 6.17026
1 22.4323 27.3291 3.52797
1 9.0262 21.3616 14.2727
1 12.1854 5.93718 16.6145
1 27.5949 16.7254 16.3343
1 27.7558 6.95633 29.71
1 2.04019 14.9367 7.37188
1 23.9857 19.3978 17.4468
1 2.59084 29.7286 17.8218
1 0.436485 5.576 11.0391
1 2.19132 21.9481 11.6542
1 11.3911 3.81225 18.5913
1 25.1976 14.4 29.3732
1 21.0489 15.5129 27.968
1 21.2821 22.4564 24.6964
1 18.5712 14.526 1.30921
1 21.5039 11.2285 20.8876
1 16.2513 22.4068 5.35797
1 27.4021 14.4685 15.7316
1 29.1155 18.5059 8.07808
1 0.938707 27.2954 3.82942
1 4.95617 7.40397 6.78574
1 14.7552 6.61272 22.2604
1 17.3974 17.6457 23.8973
1 3.37557 30.3563 14.6762
1 24.0967 16.7829 24.1603
1 18.7292 16.9785 13.6983
1 7.87462 19.4611 28.4787
1 28.8447 29.855 22.0661
1 8.87328 15.809 9.31522
1 5.55267 14.487 18.853
1 17.0842 13.4136 26.1878
1 13.0859 6.63409 24.5515
1 26.8735 25.0365 14.2913
1 25.4452 9.77216 14.9475
1 21.2067 4.39944 29.802
1 4.43106 19.4977 0.738541
1 23.2254 14.2591 27.8358
1 25.0247 3.95608 28.0875
1 16.4579 1.32508 29.9689
1 8.13188 13.9902 0.834001
1 26.1323 10.4823 7.73001
1 27.5284 5.88047 20.3304
1 0.247113 27.9353 26.3044
1 2.38144 14.167 0.726081
1 28.7346 5.87487 28.0249
1 28.8179 24.0569 12.81
1 9.55478 4.64414 20.1972
1 5.94862 3.6524 1.80486
1 18.5267 16.5467 16.3284
1 10.5897 15.3915 17.883
1 30.3797 1.19776 5.85615
1 16.9736 20.8273 27.1085
1 11.8107 5.137 20.9166
1 6.17497 24.0771 26.6056
1 0.39253 1.39329 26.6335
1 16.0379 11.8049 17.8743
1 0.309841 13.0012 18.357
1 30.1056 24.9547 27.9717
1 20.49 7.08697 19.3823
1 1.46072 15.2384 30.1065
1 13.3495 4.66003 29.6099
1 14.8414 19.7044 6.19631
1 0.655174 7.96243 4.90833
1 24.7963 23.8902 12.6475
1 8.15964 4.8643 2.08795
1 13.4307 3.33471 20.1426
1 29.397 1.36011 12.5086
1 6.23265 28.6004 20.915
1 15.0843 10.9969 23.7051
1 21.8107 7.563 9.83899
1 6.06219 25.1743 23.9064
1 4.14359 14.4764 27.0702
1 10.4085 23.6446 22.0745
1 16.1775 27.8056 26.2251
1 11.5445 11.4249 6.26716
1 0.164834 30.3153 19.266
1 8.61841 11.1184 17.6731
1 22.9852 13.3821 2.35036
1 1.79744 2.8167 11.2544
1 21.0638 7.75708 14.5448
1 12.2414 3.48537 29.4122
1 19.0765 23.6139 3.62238
1 1.57692 25.2167 7.02176
1 18.7973 17.1546 6.55544
1 23.6919 0.256459 1.56766
1 10.7344 30.004 13.9488
1 10.8957 27.5814 0.890871
1 0.604048 27.3364 7.28644
1 12.1618 18.7589 22.826
1 23.4926 4.20165 5.85441
1 20.8701 12.0226 13.9359
1 1.32119 4.41793 29.6434
1 8.37889 29.6804 22.1565
1 25.521 23.9881 24.1596
1 0.208301 7.89647 6.23364
1 15.8462 24.8157 13.3481
1 26.8697 19.1214 21.9006
1 26.5468 13.92 26.4602
1 7.09958 19.6955 22.9252
1 8.16423 9.79373 0.757236
1 28.9824 30.2282 8.10477
1 4.30326 9.07851 26.753
1 14.108 16.9113 11.2932
1 0.687152 11.4374 30.3449
1 5.20093 17.7459 8.2398
1 3.87617 4.27517 0.512087
1 17.6022 2.76227 26.5078
1 1.56328 15.3906 20.1832
1 2.35363 30.0207 27.1466
1 13.4274 5.60358 4.76234
1 22.8814 16.8413 17.1511
1 28.0708 21.2273 3.57134
1 13.6334 20.8049 1.92497
1 1.39468 13.0777 6.25605
1 13.5719 4.27039 22.1756
1 7.07935 17.783 25.2968
1 5.2384 14.2863 28.2011
1 4.96267 20.4505 5.20033
1 3.34286 9.80642 17.1136
1 1.78474 18.5427 15.962
1 0.984961 30.1284 26.4956
1 15.7829 24.9018 20.3113
1 1.25317 3.81034 13.9448
1 24.919 12.6328 27.4452
1 19.346 2.30364 3.43615
1 0.527071 27.0126 18.515
1 14.2296 25.9237 8.05863
1 22.7523 11.4903 25.6443
1 2.25409 5.54373 6.38315
1 28.9262 23.7872 1.20744
1 18.0071 26.3584 26.5424
1 30.0919 9.22873 0.633932
1 14.7593 20.1784 7.52526
1 26.8057 16.9771 12.7835
1 4.9023 19.5832 25.5272
1 7.12739 25.0337 19.6064
1 1.01991 19.9254 0.946513
1 3.24737 11.8229 3.12031
1 27.0071 29.4949 2.27538
1 18.0461 7.72655 28.1296
1 7.45413 13.7353 28.4877
1 22.627 10.4961 7.14157
1 14.7073 4.22783 22.8255
1 26.2988 2.18257 6.36787
1 3.64404 12.6939 22.3765
1 2.51664 19.0861 26.6467
1 0.304801 20.8148 12.7692
1 4.11921 10.5474 19.4476
1 29.956 14.0262 4.8966
1 4.09033 4.85862 18.0852
1 14.8223 13.0596 13.5541
1 23.0244 10.3466 8.60302
1 12.8914 23.7592 13.5304
1 15.2948 17.1145 28.9103
1 13.5146 23.4684 1.10014
1 25.8594 6.84881 24.9574
1 18.9178 18.7863 4.33426
1 21.9083 16.4173 21.5256
1 28.2439 25.1909 14.7737
1 21.8096 2.89304 17.3831
1 26.5415 15.7417 1.88807
1 10.9576 18.141 1.85156
1 29.7156 17.209 6.20498
1 17.0151 12.7708 24.9387
1 16.4447 21.3234 20.6288
1 10.7047 19.2138 28.246
1 6.5893 19.0196 9.52811
1 11.0941 5.44934 28.9872
1 8.05828 16.4618 16.1515
1 7.92763 23.5465 12.5203
1 25.4612 5.02785 27.1842
1 28.5468 10.7246 18.7522
1 6.21868 16.3982 17.0196
1 19.4168 14.0778 17.9415
1 22.36 27.5497 28.4371
1 24.3003 0.98559 21.1542
1 11.8732 3.18615 10.2203
1 0.888781 0.374748 25.1776
1 29.9486 17.3426 26.1431
1 20.5323 18.3273 9.35852
1 17.6919 3.68596 12.3905
1 3.18178 28.9638 12.2021
1 23.3898 2.08384 15.0356
1 10.4364 21.0364 13.3749
1 7.07712 25.6152 28.6193
1 19.3544 3.64034 19.4966
1 30.3075 15.5868 24.5643
1 20.022 27.0184 11.8726
1 14.3154 26.9715 21.7519
1 4.45081 26.557 16.9534
1 6.16951 5.96407 2.82285
1 28.9161 13.6014 19.8105
1 21.2472 19.1593 29.3359
1 18.236 27.7547 1.4724
1 24.2254 15.1617 1.40317
1 10.1878 1.5642 9.8998
1 6.23228 4.92268 9.55908
1 24.0139 26.6002 18.8492
1 9.69908 7.77127 0.981199
1 8.59729 2.53296 1.39079
1 0.329818 1.48614 13.2745
1 5.4381 7.14054 29.3429
1 5.13554 3.16653 21.671
1 24.8323 30.2647 22.9327
1 10.585 12.2665 16.4053
1 19.9922 4.46573 12.4118
1 22.1906 13.199 16.7328
1 4.58842 9.43951 16.5278
1 16.7195 5.91387 19.258
1 26.6222 14.896 19.514
1 0.395576 11.6806 10.9107
1 13.2165 10.5656 9.19282
1 3.78539 4.32761 16.8132
1 24.9532 2.29544 1.0683
1 20.8504 25.4784 5.56239
1 5.23531 1.95724 30.1359
1 5.3803 2.52934 18.2888
1 2.1582 16.9228 25.7739
1 24.2337 28.9591 19.924
1 13.4284 5.5368 16.1059
1 13.9501 9.02644 24.2291
1 12.4946 24.7517 21.3041
1 0.76565 7.82069 16.7408
1 3.58803 11.0125 0.50774
1 14.1298 15.9723 18.4022
1 10.8108 9.26727 16.3084
1 9.4444 5.65495 25.4348
1 12.2475 9.32928 22.307
1 9.56662 8.13783 23.741
1 2.41487 27.6062 15.3765
1 21.4972 13.5342 26.0941
1 21.1021 20.6334 4.56134
1 15.3084 28.3415 9.50374
1 2.52111 17.7511 0.656822
1 11.8752 18.279 6.45718
1 12.6142 17.7224 26.6327
1 21.4188 2.48564 6.70968
1 19.4511 19.855 18.3969
1 14.7735 1.3799 6.90848
1 25.3072 28.2335 14.7459
1 8.32565 7.1256 11.83
1 7.30848 7.00332 15.4636
1 11.7524 21.585 0.856252
1 2.44819 18.5977 24.2545
1 1.93294 14.5878 8.84061
1 5.81911 15.3027 20.3351
1 28.7624 28.9404 24.8405
1 26.283 18.3941 23.5239
1 13.1446 22.7351 25.9581
1 29.1738 17.9425 30.1693
1 12.8278 0.444463 11.0341
1 11.7202 0.753875 10.0278
1 15.7818 0.425049 15.5144
1 8.22266 6.38537 23.5831
1 16.7028 18.7368 14.4646
1 0.337619 13.2332 24.4268
1 13.6965 26.3297 16.2565
1 7.72735 20.7224 21.7271
1 24.4749 22.3334 19.1272
1 20.423 10.7941 5.13927
1 6.63533 18.0017 7.52316
1 25.3901 5.04686 10.6493
1 15.6128 3.37133 16.7432
1 0.661133 23.423 12.5108
1 15.6056 4.19708 8.71424
1 14.5242 4.07494 30.3848
1 14.5386 26.1822 11.5029
1 6.30722 4.6983 26.433
1 18.3204 20.8928 15.1285
1 20.5889 21.3256 0.51178
1 29.0411 0.912272 19.7267
1 23.2543 9.24082 25.315
1 14.4474 26.1878 3.17488
1 1.156 22.137 12.4128
1 7.48473 26.7818 14.3926
1 11.6434 15.1215 14.1086
1 15.4878 3.07488 13.3879
1 25.832 12.9321 18.5512
1 11.1525 27.6784 22.6831
1 26.202 0.50591 2.15085
1 11.9399 23.7255 25.2687
1 27.8229 12.6021 17.1554
1 29.9919 9.61389 3.16469
1 3.94549 9.81087 6.38481
1 27.556 15.2776 6.80656
1 1.86267 18.9532 10.1338
1 6.6375 13.163 6.10938
1 0.416676 10.213 16.3134
1 5.82001 3.18084 17.2773
1 9.65853 5.88647 13.2732
1 19.3615 25.4712 23.7853
1 30.0731 1.82044 24.188
1 7.10851 29.5709 21.2907
1 11.4313 24.702 22.225
1 16.2268 28.4584 25.0596
1 27.0167 5.21073 3.12173
1 25.9562 25.5505 28.2094
1 6.97142 5.66562 15.516
1 26.41 29.4117 12.0544
1 17.5551 27.4976 12.3885
1 28.4093 6.36184 5.27565
1 8.72396 22.8299 0.482495
1 11.7886 8.60015 1.86831
1 15.4129 30.2308 27.4005
1 18.3864 28.5047 17.0858
1 21.1288 10.8888 6.83756
1 24.1226 21.4803 11.2605
1 5.13067 21.9402 27.1929
1 26.5535 22.925 24.7489
1 21.3827 12.2031 10.0056
1 20.0871 12.3167 1.49253
1 23.1683 24.3667 14.1366
1 3.03059 18.4343 18.0878
1 11.0269 18.6466 9.30149
1 6.80931 0.35052 18.2786
1 20.0453 16.4515 6.35402
1 26.8982 21.0944 9.31151
1 29.0455 15.45 25.461
1 11.199 7.86461 5.83969
1 24.5688 17.9597 8.35473
1 2.76457 25.9975 7.14025
1 27.0897 22.0927 16.9322
1 25.8287 6.55437 5.81716
1 29.1567 22.3773 5.9054
1 6.22412 26.639 27.2847
1 20.4412 16.3038 17.9697
1 27.906 19.28 5.87982
1 15.5946 18.7803 27.164
1 14.415 16.5596 24.4641
1 26.5804 21.9036 28.7254
1 13.4354 27.8707 17.7956
1 7.76791 2.39412 16.8963
1 6.58506 21.8589 27.6617
1 10.4553 22.705 12.5231
1 29.3211 11.612 11.7892
1 0.928886 6.49113 16.2153
1 5.81131 7.38921 0.601343
1 15.0266 19.6568 22.2441
1 10.4113 10.895 10.4333
1 14.1986 11.0675 20.133
1 8.38932 11.2045 21.7685
1 25.4964 14.697 2.10074
1 15.6593 8.08111 6.67143
1 6.06266 1.17389 2.22653
1 16.7105 4.13805 20.7692
1 7.16113 2.57575 4.13306
1 21.9802 14.9841 13.5122
1 20.4504 13.9529 5.94292
1 23.0774 3.96746 17.4327
1 3.78981 1.54819 26.1333
1 2.14577 21.8668 30.183
1 4.45035 27.5624 19.6891
1 25.7354 16.265 29.8838
1 3.27906 15.703 21.9431
1 8.83133 5.68091 6.44249
1 12.1496 3.0652 0.781459
1 21.7968 6.95724 26.2646
1 21.3471 6.37848 13.9996
1 26.6289 18.0336 1.65831
1 22.0482 24.7615 26.1815
1 14.8529 12.3141 8.26361
1 20.6341 25.0389 8.91065
1 27.3338 1.2414 11.2686
1 22.1722 11.0284 9.62235
1 30.3836 22.4985 7.03244
1 4.03268 4.78646 4.79927
1 2.38533 8.2145 3.58593
1 27.4664 12.1474 8.56575
1 5.11199 0.934351 6.93691
1 17.2794 18.7155 11.9095
1 30.3176 23.216 29.1517
1 23.8782 14.4006 2.57808
1 1.74664 7.88977 17.7169