4096
Atoms. Timestep: 1080
1 13.5401 8.13022 19.5994
1 13.8091 25.4794 21.4694
1 6.72142 2.37118 1.25683
1 17.5559 6.84452 1.44223
1 3.75553 27.6407 28.5698
1 5.22921 18.7318 21.2714
1 10.1377 28.9239 10.0836
1 24.5012 5.76087 15.9403
1 21.7522 3.40288 2.75902
1 28.5442 15.8447 1.97314
1 24.4593 7.1764 20.64
1 7.06316 6.44105 13.4532
1 10.8298 26.9645 19.9774
1 20.4121 29.914 10.0222
1 22.6889 23.7516 14.7798
1 29.9893 27.3753 2.70213
1 29.4228 27.3645 14.1011
1 13.5698 13.7421 28.3505
1 26.6949 15.5345 6.7606
1 28.6648 21.5528 16.3933
1 7.2638 27.945 5.75791
1 12.3947 26.8208 1.20865
1 15.3679 1.66913 14.7653
1 14.2886 21.0023 24.1824
1 9.15929 0.333865 13.0452
1 22.431 10.0069 10.5894
1 14.8991 0.437677 14.3984
1 13.5197 7.69955 5.7164
1 26.1148 12.2412 0.8022
1 16.3616 20.1126 29.7054
1 10.1696 26.086 17.1858
1 4.03139 16.3036 27.0787
1 15.4119 13.0001 10.0125
1 9.38542 13.6877 21.1747
1 3.15676 17.2784 5.89322
1 5.15346 26.2032 18.5105
1 21.1253 1.82944 11.0397
1 22.2385 0.123597 27.7561
1 4.66324 14.8315 29.112
1 20.7304 10.4124 21.3709
1 13.0474 9.93676 20.5227
1 23.0632 15.8113 10.305
1 6.36464 18.3955 15.516
1 22.2481 7.68123 26.6723
1 13.7442 6.75065 21.4871
1 8.95178 0.870322 18.4284
1 13.984 27.777 19.8873
1 19.5963 7.91135 1.59626
1 3.66495 26.938 2.3153
1 20.1112 3.00422 9.13026
1 11.5582 29.418 4.96364
1 15.2828 2.79154 13.5936
1 5.90612 20.7746 13.7942
1 14.5244 8.97606 6.14477
1 6.37185 29.9354 25.7127
1 17.2477 8.62434 18.1847
1 27.7808 17.1201 9.85147
1 4.02652 24.7033 27.3131
1 2.11707 27.0247 0.927246
1 29.964 18.7103 24.3299
1 29.0045 3.60075 11.7104
1 7.36222 2.45734 29.4074
1 20.113 11.7961 8.5288
1 7.02247 16.5432 0.167531
1 14.8181 29.804 3.74994
1 20.4659 20.7269 14.97
1 10.8717 14.2894 23.5371
1 16.1176 22.4401 14.894
1 28.2996 8.89047 24.7951
1 19.9217 12.5172 19.9239
1 5.07801 21.2548 23.6831
1 29.3811 27.4056 9.17797
1 5.7765 1.63258 0.468131
1 7.33313 29.6128 8.46074
1 21.9942 3.60172 13.0781
1 19.8375 25.9225 30.455
1 1.57134 28.6539 14.4566
1 5.07659 18.7616 23.7272
1 4.34654 13.0206 27.1082
1 26.8536 27.2074 25.9268
1 24.7493 3.65374 2.30206
1 15.3915 12.6841 25.2979
1 12.5257 8.50879 18.4609
1 28.9191 24.6823 24.8132
1 27.5086 7.59505 7.16388
1 5.16561 22.1847 8.83491
1 18.9171 13.0241 24.9601
1 27.7303 0.894529 2.37627
1 7.35776 5.47066 21.9619
1 26.4702 11.7637 13.1479
1 23.1536 25.7618 10.6139
1 6.41189 9.55278 11.8573
1 25.7221 1.45375 25.0748
1 3.16095 17.9322 14.5533
1 5.55101 18.7327 4.94221
1 17.7581 23.9491 14.5907
1 25.5607 19.8297 8.74744
1 8.64145 11.0865 2.83357
1 27.5997 27.9893 16.4857
1 10.612 20.1609 24.8661
1 6.55941 9.86742 8.56214
1 2.29223 23.2312 19.0295
1 18.6563 28.5349 17.2615
1 10.5464 2.76047 7.81281
1 22.4717 13.0563 16.5646
1 1.5761 21.2915 2.85777
1 3.07753 7.28436 13.5526
1 9.69079 26.086 22.0783
1 30.704 26.8248 18.0912
1 14.628 26.7203 19.3025
1 9.68412 24.5725 2.13679
1 13.7616 14.6038 30.3393
1 24.071 28.3855 16.9211
1 20.824 0.0832229 4.67558
1 30.2262 11.7836 21.3651
1 20.7918 14.6904 15.717
1 14.1676 1.13713 5.7914
1 29.7631 23.3361 11.3146
1 5.47838 16.5711 26.9687
1 22.8596 11.4458 14.0455
1 26.6076 26.1207 17.8451
1 27.5686 22.7157 3.05156
1 14.0362 29.3717 26.2036
1 16.4183 3.95368 19.8561
1 29.9584 12.3732 29.1107
1 8.66396 1.38323 15.9075
1 24.1339 18.9567 6.04092
1 8.9257 14.9987 12.9207
1 10.2788 18.1609 16.6613
1 29.0754 20.679 10.1616
1 25.8337 11.417 18.6801
1 6.92352 12.78 11.62
1 4.21004 21.2407 13.8662
1 6.92772 5.7107 29.7926
1 1.4499 15.7925 14.3877
1 22.6261 10.5676 26.7402
1 16.7439 9.42462 11.1597
1 24.5179 7.4982 22.2929
1 13.7364 22.4974 24.202
1 29.5148 27.1425 11.6229
1 23.5471 4.17022 5.0311
1 2.58733 26.8604 28.8686
1 18.8871 27.9762 26.0243
1 15.5515 3.92373 7.36776
1 22.745 23.6364 5.29429
1 19.0995 23.5467 23.8621
1 29.608 8.44421 7.50014
1 27.1294 11.2291 7.85344
1 18.9731 2.95858 12.1243
1 15.2695 27.1966 14.3719
1 4.45118 28.6275 22.577
1 27.5431 29.4531 22.0148
1 20.2131 13.254 3.59115
1 18.862 2.66699 29.6828
1 2.9094 24.1854 19.6214
1 24.1946 2.80163 16.9848
1 4.01 20.4559 12.4081
1 15.2868 6.23932 25.7908
1 15.2608 5.90161 0.736743
1 0.484293 10.2726 28.5516
1 21.4362 27.2645 1.77864
1 8.09739 22.4479 16.1714
1 28.1543 17.7258 12.6295
1 17.9622 11.3956 27.6633
1 26.002 9.14667 14.0235
1 23.9279 11.0532 24.6673
1 12.0288 4.556 13.4152
1 20.3835 13.5739 19.2888
1 10.7286 9.35014 19.4366
1 14.8725 14.2587 25.0684
1 0.39685 24.2996 27.8007
1 11.6 3.19087 20.393
1 8.41533 12.1095 28.8949
1 21.4237 7.57582 18.9114
1 28.4323 13.5538 13.0636
1 12.8962 14.0061 13.7233
1 29.8534 20.9959 8.84431
1 9.9873 6.89103 4.68672
1 21.4675 16.7608 18.6967
1 30.0324 12.019 6.25783
1 14.8567 1.20715 16.7629
1 12.2105 9.46323 21.7363
1 10.3457 15.2734 20.4584
1 8.5349 6.61496 26.9239
1 1.70527 22.4321 4.78475
1 3.21555 0.985956 10.6431
1 17.015 2.98873 4.55331
1 1.96477 18.132 7.92243
1 12.8097 30.0964 17.7639
1 25.3923 3.15753 3.55032
1 18.3559 21.4628 6.03913
1 8.11587 30.3124 1.42204
1 23.2662 10.4973 21.9214
1 11.7057 16.9706 4.38313
1 13.0812 22.054 29.0242
1 4.76913 1.95994 11.7902
1 29.769 25.1441 9.94822
1 2.68192 14.9207 14.574
1 9.90059 6.40801 3.37558
1 12.4599 15.9453 28.2276
1 24.1802 30.3751 21.1235
1 26.5397 3.64512 10.4448
1 20.8069 24.467 2.16476
1 15.9908 2.39912 8.99316
1 29.0506 25.8697 24.1651
1 13.0201 28.8386 14.9681
1 1.39214 28.3464 26.1324
1 29.6345 17.0422 27.71
1 25.8291 16.8869 18.3315
1 4.31726 5.82729 21.114
1 22.7841 12.0528 8.57526
1 22.5818 6.25228 26.6119
1 20.2455 21.928 11.593
1 12.1318 5.76426 23.7086
1 9.26046 28.0708 7.54413
1 6.26764 8.26623 14.7369
1 21.6415 17.2795 21.1976
1 4.94949 3.28638 23.7748
1 1.29902 9.28216 2.50809
1 11.3482 15.732 2.50397
1 28.7189 16.9892 3.69006
1 5.31065 9.69576 13.0215
1 14.8639 5.52932 17.6059
1 16.3015 17.2189 30.4835
1 20.6793 13.9853 4.72198
1 19.7413 9.93558 22.2382
1 19.6131 13.0185 5.17337
1 28.8084 5.65108 23.1174
1 20.0643 11.2179 27.4179
1 24.9969 4.60456 1.28494
1 6.35924 1.83978 25.0567
1 2.7333 11.833 12.6955
1 7.97518 13.0713 13.5991
1 4.0115 15.4326 4.64317
1 29.5355 0.269785 18.3307
1 24.8393 14.8457 15.3108
1 6.25203 6.09772 7.63259
1 29.3634 12.141 20.2274
1 23.3287 10.4345 1.52889
1 27.3187 21.306 3.4886
1 0.698814 1.61126 26.952
1 18.1012 8.61014 26.0494
1 14.6827 0.677402 8.52113
1 9.36387 27.2982 29.5153
1 23.9499 17.0212 3.71747
1 3.88089 18.6781 7.8086
1 0.705433 14.3019 17.1571
1 17.5998 30.3722 3.46739
1 26.396 25.8012 26.0022
1 20.7967 16.621 12.117
1 1.44222 17.5151 29.9841
1 11.8171 12.8091 12.0243
1 17.2392 19.7166 2.78768
1 18.5688 13.0473 3.90978
1 6.62683 16.527 4.79365
1 0.0828669 24.2646 24.7013
1 24.1609 3.73164 10.0618
1 7.25154 30.2107 27.4036
1 2.20749 25.3762 10.9126
1 27.8921 29.3692 13.6157
1 9.46013 12.8884 0.940394
1 10.2002 1.34204 21.7987
1 23.4366 18.0907 3.08882
1 1.5991 15.2013 22.3386
1 1.30138 12.9168 10.8167
1 13.4696 23.3299 8.2772
1 12.0002 30.5108 28.7836
1 13.88 9.80385 0.381372
1 3.35028 5.23229 10.2376
1 26.6739 25.5413 8.77321
1 12.7858 9.83648 12.0231
1 17.2906 5.39765 10.5732
1 18.031 6.18503 22.6187
1 3.06733 14.5192 1.01367
1 28.7453 19.195 21.1834
1 7.99538 16.3829 4.84783
1 26.8097 3.51229 3.53931
1 4.14902 5.9416 17.9558
1 3.63537 18.6003 28.6479
1 10.5199 8.33872 15.6788
1 14.2401 11.6899 13.2877
1 27.5569 29.1156 18.5547
1 13.7512 8.85548 17.5309
1 24.3236 25.3204 5.17701
1 1.48467 6.78571 11.5365
1 14.86 -0.0659637 26.5343
1 11.6569 24.4366 14.9286
1 6.41871 23.064 30.0865
1 21.2696 26.8969 6.055
1 11.7714 10.537 11.3933
1 4.84907 12.9425 10.0707
1 18.9896 30.1433 10.9416
1 0.718007 21.1271 28.8105
1 16.7941 14.8821 14.6541
1 0.580245 14.2086 20.2709
1 5.31943 15.4924 17.0368
1 18.3876 5.03064 29.9467
1 13.4964 19.6974 27.2626
1 16.403 25.1635 9.8305
1 22.4044 22.2983 5.44428
1 22.3232 10.1029 16.115
1 26.5721 8.25567 19.839
1 26.6725 5.91916 3.62196
1 9.54876 20.1353 17.9033
1 10.4764 19.0128 6.42596
1 28.1329 26.5313 6.21183
1 9.97338 19.5699 27.2003
1 28.8241 22.787 27.2543
1 11.8686 0.572111 25.2089
1 16.6692 29.4266 7.43945
1 29.3077 15.5061 15.6136
1 27.9536 28.9191 5.39206
1 26.6009 28.5969 17.2859
1 18.2765 12.4236 10.1795
1 26.2711 0.95709 17.4099
1 8.29359 8.65284 23.79
1 20.6668 4.69451 24.477
1 6.14114 7.35768 22.9486
1 21.2578 28.5994 19.0785
1 24.274 13.1143 29.8509
1 19.3632 15.6817 5.85264
1 16.2062 10.792 11.5615
1 9.804 25.0697 21.1688
1 5.82014 1.76543 12.656
1 15.0448 17.2837 19.1184
1 13.5956 16.1826 10.3601
1 4.80442 25.8724 14.5969
1 17.4997 22.3634 27.3155
1 6.98448 22.7692 27.6327
1 7.4709 7.64902 20.7876
1 16.3312 26.3359 12.1751
1 25.6962 0.586495 19.4644
1 12.4357 3.36125 23.3261
1 27.205 16.2983 1.76528
1 19.4544 0.437837 30.0572
1 1.9368 2.81675 7.63943
1 15.0613 28.7824 4.79243
1 25.0262 7.30666 0.394617
1 25.9428 1.17604 4.7379
1 24.2923 19.3486 2.92877
1 25.9684 5.43966 24.9428
1 19.2946 17.0198 24.6586
1 22.0843 19.744 9.17446
1 25.6147 8.8351 18.7793
1 2.40596 20.6631 20.1433
1 23.6206 4.85183 14.5818
1 3.01339 15.2318 20.803
1 9.65339 22.5481 14.5627
1 21.3454 4.45243 13.9024
1 11.5283 14.3893 18.835
1 17.9091 10.5785 14.9579
1 6.38797 21.9591 17.6206
1 7.03296 20.7851 23.2046
1 18.0623 6.14979 27.5465
1 11.2053 0.505296 3.56186
1 3.77658 2.47894 20.8361
1 0.258733 30.4831 15.9309
1 16.8932 19.0973 18.0571
1 13.4317 2.61451 29.0997
1 20.0782 9.95951 10.6344
1 4.48762 12.3192 14.4513
1 24.9354 25.811 26.0973
1 17.2131 26.4132 14.4167
1 25.8826 3.17303 29.8058
1 12.2094 9.11143 13.2062
1 9.67827 18.2208 29.2812
1 7.19391 6.57098 25.1372
1 19.6312 6.27485 5.77582
1 10.3045 29.9985 17.9725
1 7.71684 20.438 28.7988
1 1.49059 4.48935 13.7041
1 22.4636 21.0921 29.967
1 8.59596 10.8831 8.69739
1 0.397328 8.65097 27.5244
1 7.87724 16.0323 7.45491
1 12.1379 29.6656 24.5286
1 23.6299 13.5018 24.6515
1 25.2909 21.4489 27.4356
1 20.6895 12.654 10.9163
1 10.151 21.9484 22.5103
1 24.3616 5.19715 18.6663
1 1.67868 10.6386 23.869
1 4.52984 13.674 2.80585
1 27.7969 26.0862 23.774
1 20.4024 0.403208 7.61003
1 12.0519 7.33602 18.2504
1 6.65914 1.55832 7.31027
1 6.7362 3.90215 26.4118
1 5.7193 10.5401 5.48754
1 15.9183 9.31402 22.2087
1 20.7647 22.6851 17.6752
1 2.78086 12.2032 11.2121
1 20.2154 4.13318 21.8985
1 25.832 25.7039 22.2839
1 7.8007 15.7848 9.85104
1 12.0854 20.7912 5.75656
1 25.3434 20.2954 24.5696
1 4.34089 29.5535 18.7201
1 21.9137 24.6364 29.5228
1 23.2275 16.9326 27.5496
1 3.14727 2.0076 27.3405
1 19.8305 14.1091 9.14054
1 10.4859 11.3388 27.4792
1 2.41341 13.398 14.5591
1 6.05013 21.4749 2.46316
1 6.88919 4.29003 25.1402
1 9.33905 6.39019 18.8064
1 2.13851 6.8744 18.0894
1 17.0532 9.99796 17.6902
1 5.47894 14.5462 9.56315
1 5.70462 23.0754 26.9726
1 9.09356 10.037 1.70979
1 24.9309 15.9334 21.9546
1 27.4306 27.6113 5.73546
1 16.2796 13.949 10.5061
1 23.591 24.4805 20.1783
1 6.0978 8.53128 24.9768
1 13.0832 3.48158 26.6157
1 11.9736 7.94797 21.7569
1 27.1985 4.53808 2.77286
1 15.0346 26.5405 0.995111
1 0.350466 6.55515 1.63296
1 3.2086 23.6723 9.67904
1 26.8811 5.74082 0.442337
1 19.7314 12.4279 9.86689
1 26.0899 26.9674 5.23845
1 16.0322 13.6878 29.6101
1 20.4997 25.884 18.1276
1 17.1588 27.6589 5.96043
1 10.8496 4.26864 7.69028
1 8.86779 25.2143 1.39579
1 24.6169 14.8577 27.9402
1 24.5412 22.3888 30.0325
1 26.6197 3.08959 0.649719
1 21.0646 23.7598 8.44791
1 10.4506 29.3284 20.8713
1 15.6061 15.0139 13.5454
1 14.2963 9.1889 20.5169
1 14.6728 21.9518 21.7934
1 0.350901 3.98479 24.6757
1 29.6667 20.7186 6.28258
1 16.2251 10.4854 21.1829
1 4.16579 18.417 2.71782
1 12.7286 26.9599 7.97926
1 0.537983 3.5128 0.118518
1 17.0718 18.8921 15.1994
1 22.6651 16.4775 21.3335
1 -0.263339 29.4923 19.2544
1 27.8442 19.1585 4.6016
1 20.4313 24.8217 29.9382
1 18.679 29.0065 23.1944
1 28.6911 30.4699 27.1477
1 15.6289 11.8378 27.5315
1 17.6419 9.73868 3.78786
1 27.3315 22.2699 14.3174
1 5.45281 14.5336 13.8327
1 11.3926 24.0064 0.381701
1 14.3513 15.1144 5.60943
1 21.6591 23.0788 23.7655
1 4.25475 2.15051 23.4119
1 6.54592 0.0635274 22.9403
1 9.90917 7.88885 21.2274
1 7.71932 10.182 19.3589
1 23.257 12.0924 1.36499
1 17.2397 13.7877 27.183
1 1.50876 18.3359 14.6622
1 17.4769 10.4468 0.218556
1 27.7271 28.5552 8.0438
1 9.11515 29.6449 12.3862
1 5.84958 6.11814 2.21899
1 4.31338 21.2806 2.88398
1 23.6409 23.3177 20.6497
1 13.8396 5.95238 1.04915
1 9.73773 10.72 9.61559
1 7.35807 18.5576 3.20818
1 14.5174 11.6523 15.5602
1 6.11281 18.1752 18.2521
1 23.0523 2.44138 13.649
1 22.2382 7.43076 13.6921
1 16.9679 29.8529 6.05977
1 8.3291 15.6651 28.7335
1 25.1395 29.209 16.6136
1 0.304323 19.8807 26.3361
1 12.0283 22.6659 13.2428
1 12.6783 24.1897 11.8525
1 1.75205 22.3326 27.265
1 3.68826 20.5792 14.8515
1 24.8757 13.455 15.6479
1 12.1507 13.0954 18.5726
1 23.4927 7.8827 15.7968
1 6.4965 16.7978 23.4006
1 30.245 25.5313 30.3843
1 0.618176 22.2121 6.56931
1 15.0897 17.1178 21.5532
1 12.5799 30.1211 4.24235
1 8.71977 7.59376 1.70176
1 12.0393 4.99828 30.1727
1 22.0013 28.2211 10.5557
1 18.3554 12.8098 13.9217
1 15.7515 6.97269 1.64558
1 18.2093 6.70093 30.4921
1 14.244 11.7473 19.3874
1 20.1957 25.5749 20.6281
1 25.0082 1.1784 22.7839
1 21.5603 21.1323 12.1021
1 12.1776 19.5755 7.83267
1 24.0737 12.6559 2.34354
1 5.8787 25.9624 8.86088
1 29.4039 16.2876 25.2202
1 27.5237 10.9766 18.8583
1 2.34913 15.1905 28.1723
1 19.7098 7.89779 14.4872
1 9.90028 19.8048 29.9379
1 27.5568 2.47029 26.6283
1 15.8051 7.0159 28.6816
1 21.4461 11.8064 8.3104
1 16.7829 19.0337 21.1776
1 1.87705 29.1997 22.1812
1 27.2257 28.514 12.8098
1 21.7597 12.5823 22.8294
1 4.27586 28.4982 4.00572
1 12.5823 17.607 26.1038
1 21.5633 17.1745 15.6752
1 0.963957 29.535 7.30159
1 6.34175 21.969 8.00654
1 10.7504 25.538 14.8966
1 4.89908 0.594405 21.2327
1 4.53674 13.3358 28.6411
1 0.582582 1.584 9.42539
1 20.3884 29.7622 30.2966
1 23.8971 15.9126 2.73282
1 17.8633 25.5689 24.245
1 20.1913 5.55981 27.4871
1 12.9975 26.7279 13.3182
1 30.3909 8.39129 18.0666
1 22.9008 15.7628 24.3857
1 7.40721 18.1395 10.1996
1 25.7425 21.3964 24.3311
1 26.3026 24.1072 23.7573
1 0.897166 12.6201 5.90861
1 29.0969 28.0613 26.6772
1 26.5895 13.2593 21.9745
1 28.9056 15.1481 11.2187
1 28.0363 8.51907 13.2001
1 23.3618 28.8688 25.9137
1 14.3384 25.5721 4.07949
1 9.13548 18.0904 8.53981
1 15.5543 24.8641 7.4784
1 17.8469 28.7029 20.6668
1 23.2507 3.39015 10.9948
1 7.05034 17.5393 25.5023
1 10.2798 12.6658 12.7863
1 24.6402 24.4369 2.16722
1 17.4887 23.4107 20.9386
1 27.9087 20.9073 23.5018
1 27.3781 24.0941 11.6344
1 17.9079 26.47 3.19418
1 4.0846 7.20975 0.0401748
1 28.094 15.7501 29.5263
1 23.7429 7.62922 30.1783
1 24.8955 15.8402 18.7504
1 11.7354 23.8896 6.57052
1 24.0439 16.9218 21.8426
1 3.11012 22.9791 30.4615
1 5.84608 18.2522 1.19907
1 28.6942 13.5723 0.695305
1 6.91726 4.12545 18.0246
1 30.0615 28.4944 1.52414
1 28.668 25.1561 29.284
1 22.0085 18.6234 2.79225
1 4.64876 27.7695 13.1067
1 20.0663 26.7674 12.9977
1 3.48471 16.5644 21.2085
1 22.9186 11.5746 22.9125
1 15.9305 16.8436 27.7991
1 10.0796 18.4763 15.327
1 13.8544 27.9852 13.8005
1 2.75017 26.5561 26.242
1 25.2276 0.854529 20.7595
1 18.8413 4.65478 18.957
1 3.95299 12.2683 29.4664
1 14.6045 8.40856 15.2502
1 1.66028 4.94974 7.00128
1 26.3409 25.6795 15.508
1 18.8302 25.419 3.09596
1 29.9133 30.1483 23.9802
1 11.0811 11.6893 21.7625
1 17.2434 29.8649 29.5852
1 4.87001 15.9151 14.1464
1 17.1023 19.6481 11.3133
1 28.5775 16.8984 22.167
1 7.07242 25.294 9.6255
1 9.47848 1.74755 2.02379
1 4.31332 16.3181 8.51472
1 12.8698 1.13949 25.7714
1 0.618954 15.7397 23.2071
1 28.9509 0.29935 0.87636
1 11.3525 10.07 17.009
1 12.3554 16.2097 6.67214
1 14.2048 23.0605 21.207
1 4.41596 2.42779 6.75989
1 20.1839 4.50396 4.24199
1 15.7587 3.70136 24.6976
1 30.1629 30.0073 13.3373
1 7.36676 8.28556 29.2454
1 27.1847 22.7842 6.74094
1 29.1458 9.44079 20.5762
1 16.8046 21.3317 14.2757
1 13.5895 5.66198 4.56041
1 27.1355 7.37685 10.296
1 25.6043 19.6782 2.98799
1 21.1366 14.3785 21.3254
1 11.968 26.5703 20.915
1 20.5079 27.2451 2.6934
1 16.6092 16.0184 11.4897
1 17.9934 16.8412 24.5999
1 16.5579 1.00218 23.4981
1 7.03172 23.6581 15.4803
1 24.0432 12.0095 23.8348
1 17.1498 19.2585 25.0139
1 9.0775 21.5854 19.8884
1 24.999 1.73341 13.2555
1 14.5831 9.50983 29.4634
1 20.2314 1.65913 22.1262
1 8.3326 3.42802 18.2623
1 23.2778 3.45616 7.46796
1 8.32739 23.5347 3.36542
1 15.0019 10.7506 18.7209
1 6.1762 20.2753 30.4493
1 18.641 28.6153 0.613677
1 5.4194 25.4916 15.9991
1 13.9917 18.8916 3.61671
1 12.6463 22.9251 27.8767
1 28.5375 2.03525 17.6413
1 24.7197 6.92208 26.3725
1 9.46443 5.77779 5.89482
1 2.19764 1.26988 30.653
1 3.31086 3.31951 7.8408
1 13.1381 17.1285 5.73451
1 4.65067 27.0147 19.6418
1 1.0429 10.5531 1.7442
1 11.0439 26.4618 16.0438
1 21.1194 10.3584 26.8368
1 11.9979 11.808 10.9911
1 26.9363 16.2675 0.182369
1 18.9622 14.2283 19.2766
1 3.53339 9.45962 1.95845
1 13.8063 22.739 18.3479
1 15.5164 1.63772 3.29571
1 24.0294 29.1928 14.7321
1 20.3185 3.58769 6.70158
1 19.4202 6.88018 11.1103
1 9.46487 25.642 5.94781
1 19.9665 23.0581 14.7216
1 12.4049 13.5211 9.50072
1 6.34879 4.28986 27.7988
1 12.3076 3.28699 28.1675
1 22.5112 29.1456 9.83536
1 17.8488 13.932 10.083
1 30.2741 11.3707 9.32636
1 4.10253 29.8185 24.495
1 23.7479 28.9983 7.53843
1 0.903249 23.4681 13.2293
1 19.2286 13.7649 2.79571
1 7.45392 25.3421 27.9839
1 7.46636 11.6515 2.53808
1 5.15283 3.86575 26.5766
1 16.3011 20.1706 14.8828
1 29.1571 6.18027 20.7643
1 0.475892 6.64563 13.0024
1 21.7487 27.1712 29.3829
1 13.4482 25.1862 2.85125
1 4.94974 13.3787 22.901
1 5.00567 29.124 13.0452
1 3.51979 18.3061 12.2724
1 12.182 11.1551 30.254
1 24.4814 9.90504 28.666
1 7.55969 14.9278 19.4956
1 28.0985 0.219467 29.8829
1 14.5892 6.93238 28.0465
1 22.4735 26.8552 8.12446
1 1.95359 24.824 5.34351
1 16.8383 13.6591 22.9679
1 2.51072 8.00299 11.1167
1 16.539 5.75424 25.3852
1 0.403215 18.4985 10.8875
1 5.78294 26.7549 3.01012
1 28.175 27.566 25.6669
1 13.7334 12.6894 1.8055
1 21.718 4.58625 3.27109
1 11.8096 12.0721 9.67384
1 17.3831 18.2525 11.1527
1 29.9092 16.8592 22.6368
1 20.1827 21.6269 8.70413
1 9.46626 24.379 16.0121
1 4.65811 26.626 1.12799
1 29.83 3.46375 25.8134
1 16.1213 17.4561 8.48314
1 5.82766 2.59228 15.2777
1 3.47576 18.7351 27.1642
1 5.68652 27.5197 1.95999
1 20.7984 8.09004 20.0703
1 0.923652 24.6858 9.99951
1 17.8029 5.28317 26.0344
1 8.50695 2.79651 25.7884
1 7.08355 30.2944 13.9002
1 12.2051 25.843 2.41512
1 9.50297 11.0272 6.41349
1 21.4831 1.67303 17.8199
1 11.6756 0.356547 2.02742
1 15.8813 26.2067 22.6438
1 22.2642 25.6697 25.9478
1 21.9706 17.6647 30.5829
1 3.26413 13.366 2.08456
1 16.652 7.59033 5.24561
1 17.2271 2.62881 30.5026
1 1.13935 29.9099 13.6482
1 19.483 11.9226 25.0279
1 7.28319 11.8103 9.14801
1 20.4626 3.46736 11.2026
1 28.2314 11.0661 10.3584
1 17.4375 15.3164 26.7793
1 9.64186 6.34219 14.6791
1 15.2315 29.1267 1.05051
1 21.9018 8.37075 24.333
1 17.71 3.11216 6.24071
1 20.0361 2.55148 13.1418
1 17.998 29.8263 10.0499
1 18.2096 15.0631 30.0549
1 21.4429 8.36291 25.7264
1 20.0762 12.6677 16.8313
1 7.00527 12.5716 29.1887
1 14.1704 12.0356 25.4749
1 1.8762 21.5491 4.04131
1 10.8157 15.566 14.1116
1 2.87568 10.0689 17.4096
1 28.4695 7.26881 30.1241
1 18.547 8.33485 23.7258
1 7.46242 7.03532 26.3258
1 5.17266 14.3207 12.2889
1 4.81219 7.37984 17.2974
1 4.42193 14.0916 21.8995
1 0.719887 13.771 2.10297
1 7.72634 13.6177 5.43743
1 8.68498 10.0471 20.3624
1 26.3372 5.52899 27.3305
1 5.0697 7.69329 5.50761
1 17.982 20.8124 8.36285
1 21.0972 11.8347 2.90843
1 7.11393 14.3764 13.9395
1 25.8566 1.92217 6.03842
1 1.29498 2.50298 10.5989
1 1.31525 8.9412 16.1073
1 11.6448 5.7675 20.2726
1 25.335 12.1558 19.7965
1 25.022 1.79033 7.18266
1 21.6708 17.8843 12.29
1 25.9765 15.3931 -0.209284
1 23.4323 29.112 19.4784
1 0.258346 27.7304 21.8613
1 3.83552 7.69984 22.2194
1 16.337 15.0695 16.083
1 2.06837 25.1994 12.4018
1 25.9789 12.013 11.8662
1 14.8003 19.9852 3.82022
1 8.16019 9.0269 16.4783
1 7.78857 18.9919 11.3615
1 9.67072 5.29218 13.5655
1 19.2703 29.199 6.3959
1 27.0962 3.08835 20.1963
1 6.82077 4.95461 1.88237
1 18.4402 14.6133 11.249
1 13.7321 14.1623 21.2021
1 29.3054 4.45948 22.7203
1 28.7148 8.96536 3.74168
1 17.8913 9.51739 23.6682
1 12.8441 13.4483 22.1017
1 22.0914 17.403 5.86023
1 15.7789 26.0766 10.9009
1 30.0805 18.3491 28.5834
1 4.6386 3.17456 15.4982
1 10.608 9.19943 26.9889
1 22.2216 2.75225 28.0329
1 4.07108 8.24025 7.66453
1 23.4804 13.2779 7.00839
1 18.7701 24.4792 27.2348
1 3.22706 26.8207 19.9284
1 6.60044 1.04173 29.6555
1 1.54878 27.7212 21.4473
1 3.42125 1.84001 30.1209
1 30.1108 13.1506 30.294
1 30.1011 4.72954 7.07297
1 6.54483 19.6389 4.09115
1 19.3776 26.9949 27.9792
1 6.48972 18.4043 6.50007
1 23.1956 2.76636 19.1721
1 8.49564 22.2842 8.36769
1 28.1281 10.9178 20.2404
1 2.65468 29.0744 5.17024
1 9.15 0.691642 26.3364
1 14.7799 17.6054 3.61549
1 12.3206 3.25988 10.3929
1 6.11457 0.690003 28.2544
1 21.9369 28.7017 1.58334
1 29.602 10.2058 25.9402
1 21.4947 18.5415 20.965
1 15.6266 24.0104 10.5787
1 20.9727 29.5431 17.7842
1 22.3067 14.1368 15.8092
1 10.8934 21.4926 7.75181
1 21.5366 16.2229 2.89708
1 29.0583 17.8571 0.893421
1 11.7606 16.9603 28.9138
1 14.6879 8.19297 25.5982
1 22.9387 19.0505 21.3359
1 7.57941 21.6951 5.59144
1 7.40221 11.7264 1.09255
1 1.10105 28.1627 11.9233
1 28.0112 10.8174 28.8855
1 0.769588 18.9478 25.1859
1 1.24881 10.4126 20.0832
1 -0.112622 5.53855 4.56114
1 11.4123 24.5877 8.89119
1 2.13567 13.8571 30.4133
1 25.3042 5.69679 4.01987
1 26.2562 3.51359 8.34642
1 3.53519 1.76208 24.7303
1 9.38155 5.97426 9.00527
1 27.6108 25.502 11.3571
1 10.0652 15.4481 6.1582
1 4.40462 8.32789 2.45924
1 23.1163 24.0465 2.31809
1 15.9613 12.9624 21.8636
1 2.85014 10.0435 29.5395
1 21.5335 14.4349 18.7147
1 11.3674 17.9051 0.574094
1 7.59954 3.77606 13.3354
1 9.98438 20.293 15.2559
1 12.3791 18.3362 29.1317
1 5.38646 15.2099 1.18238
1 4.26601 1.83042 2.53135
1 29.4606 3.19029 20.814
1 2.01102 22.0873 15.7499
1 7.7613 19.0052 14.5838
1 6.23123 5.92544 15.9071
1 9.92821 15.8559 1.67418
1 21.315 5.40411 19.7982
1 29.6048 2.11282 16.4874
1 5.62699 1.88038 27.6239
1 29.2089 10.3273 9.48239
1 15.689 25.5002 3.47989
1 11.06 20.6388 14.0886
1 15.6752 15.4921 23.2135
1 22.6259 21.7967 8.58973
1 30.0063 5.81137 16.365
1 14.8967 23.2043 0.410118
1 25.0067 13.5071 19.7428
1 12.0627 29.1225 21.4248
1 13.7237 17.3527 18.2107
1 16.0133 5.62174 14.5108
1 23.777 17.697 15.3918
1 16.4166 7.5673 17.1868
1 26.1239 9.56747 0.948686
1 15.8504 10.2246 24.8048
1 26.7739 23.53 26.6566
1 7.19653 26.6383 22.3184
1 26.4658 12.6317 20.6032
1 24.5809 28.2646 26.4488
1 27.608 18.9753 6.76723
1 24.345 2.34932 1.98684
1 6.68693 23.3183 14.1765
1 18.1707 3.92144 8.8218
1 2.60939 22.5885 28.3198
1 22.6053 28.3437 12.3167
1 3.15658 19.3446 3.50158
1 24.009 23.7179 13.8514
1 9.58272 20.8815 10.2054
1 14.1309 26.27 27.4386
1 23.6024 30.4307 14.786
1 10.1713 17.6287 9.71729
1 6.94877 14.1777 28.3509
1 25.3673 29.9864 23.1969
1 14.8616 21.9967 15.4212
1 27.959 23.4779 7.92753
1 9.31769 10.3603 5.10737
1 18.2799 24.1448 11.1395
1 6.94297 5.32103 18.6928
1 7.85723 22.1301 12.7083
1 13.6733 17.1887 30.4035
1 25.9342 27.4917 23.0864
1 24.4299 29.1696 23.5611
1 23.9602 12.9637 3.72664
1 18.946 7.04695 8.50825
1 23.7328 8.34221 20.1155
1 29.219 3.1118 22.1302
1 27.9813 10.1537 11.5187
1 12.4432 7.66984 6.66622
1 19.6133 1.79559 30.6323
1 24.5544 8.06817 27.383
1 24.7877 17.1728 27.1859
1 20.4561 15.4643 14.5493
1 29.638 14.6089 9.02916
1 14.2846 20.3651 1.58255
1 28.0043 28.3842 24.4147
1 4.19309 6.89103 27.7248
1 4.30761 24.976 22.3232
1 19.5778 12.8728 0.338061
1 21.5973 12.7558 24.9423
1 21.9357 7.60536 20.9487
1 6.84579 11.4144 27.0875
1 16.3734 12.1466 16.5746
1 1.26836 7.82693 21.8324
1 8.8142 22.4847 2.46403
1 6.81001 17.7214 19.7746
1 10.9082 17.7069 13.7778
1 26.1773 27.7564 20.6581
1 26.5043 13.2712 24.4856
1 24.8012 9.3721 3.23428
1 2.23611 2.70094 24.9992
1 21.88 25.8834 5.38839
1 23.2612 22.4044 27.3791
1 9.9825 19.1371 25.8436
1 15.9575 20.6279 26.7695
1 18.3428 19.1508 18.5937
1 14.4535 20.3409 5.0952
1 3.97654 5.05687 5.0106
1 4.55712 2.49261 26.6634
1 19.8737 23.0162 8.75275
1 19.8946 2.77057 21.0831
1 26.0198 18.2848 15.1522
1 10.1543 30.2684 8.02362
1 21.022 21.113 27.065
1 13.6644 27.143 4.37678
1 8.96495 23.9801 11.4222
1 22.9011 12.8243 14.1358
1 11.3418 28.2665 4.00049
1 16.8542 23.6205 24.6022
1 12.782 17.7498 15.9129
1 17.6223 28.6078 28.9355
1 14.2128 7.36551 9.1195
1 2.12786 20.9583 27.188
1 6.12939 10.8036 2.72874
1 4.05728 13.1558 7.7396
1 6.46327 23.9413 6.21858
1 7.44842 19.7579 26.4549
1 27.9304 5.49252 20.4047
1 2.48857 11.9593 21.2691
1 18.2582 18.7794 29.8107
1 3.88669 8.91344 15.592
1 12.3394 5.51795 9.94464
1 15.2532 4.87343 20.5111
1 3.17685 25.3718 24.4672
1 1.704 19.5515 6.28211
1 10.8168 11.8611 8.76225
1 2.58789 27.884 14.5115
1 2.56059 3.88706 17.5222
1 11.6434 12.1178 19.5828
1 23.0367 19.9127 5.99919
1 28.6434 23.3328 12.2898
1 6.27191 3.51424 4.89091
1 0.358856 26.4613 29.5316
1 7.25702 6.86326 5.53075
1 14.3911 19.5791 17.0273
1 20.4633 14.9329 0.293202
1 17.454 14.9205 16.789
1 22.8444 19.1409 18.4646
1 8.99822 5.33157 26.5425
1 8.02848 17.4736 0.914683
1 28.2679 4.51537 9.64226
1 9.85539 5.62079 17.2807
1 2.42036 30.4228 28.3934
1 12.3218 6.74872 11.4097
1 2.11303 27.0677 9.01982
1 9.98332 2.30531 6.67728
1 7.35251 9.22967 22.6176
1 7.25978 19.0735 20.1266
1 17.7184 7.4969 22.7379
1 17.0152 22.0015 21.2861
1 19.9251 28.7924 26.2279
1 30.2059 8.986 26.1468
1 24.7302 23.421 11.3921
1 2.44656 9.53168 24.5905
1 1.63602 17.5147 11.3101
1 3.89164 10.0479 0.340267
1 9.98557 7.20354 1.17912
1 3.57021 11.1766 21.4086
1 20.6674 12.4542 25.6368
1 29.0369 2.38113 28.551
1 1.58432 11.1039 15.0087
1 14.95 29.574 10.6786
1 21.5179 27.8271 21.4579
1 10.96 26.4352 24.2387
1 7.78714 0.380088 30.2195
1 20.8272 4.1324 17.542
1 18.5154 9.76041 15.664
1 21.502 2.35219 4.562
1 5.90826 3.68947 1.75359
1 27.5691 12.123 28.2326
1 25.6946 7.17315 22.9437
1 17.0574 8.85065 29.6534
1 1.44808 7.06254 5.54995
1 4.39776 15.8909 17.8733
1 14.9988 17.9898 30.3333
1 18.2465 2.48209 23.7804
1 12.6812 21.9684 18.2194
1 18.1473 21.1621 30.2311
1 18.4391 23.2754 8.99804
1 9.98891 18.9835 19.0344
1 27.5088 13.4704 4.28463
1 10.9468 16.426 6.98986
1 26.1839 6.60425 30.0477
1 29.2048 1.42613 18.849
1 22.0449 3.1935 15.8624
1 17.266 12.6197 23.5558
1 28.1358 20.5639 4.27676
1 0.951195 23.612 10.869
1 2.79865 1.12151 2.40469
1 9.10938 9.48118 25.2391
1 2.79379 8.64601 4.21289
1 9.34607 0.33673 2.15347
1 6.41563 24.4065 10.6826
1 8.84355 3.40973 0.556089
1 11.5203 8.76077 6.96321
1 29.0324 12.281 22.5124
1 9.95031 6.23613 30.4257
1 5.79797 17.5369 0.100021
1 24.9481 5.47147 12.6559
1 10.2962 4.22835 21.969
1 9.25219 8.83508 7.49278
1 13.3555 22.113 13.0147
1 18.8456 1.053 7.05202
1 17.7918 9.68311 19.898
1 25.6289 27.0534 28.8114
1 27.5171 2.90117 17.9749
1 16.648 25.0122 16.5054
1 6.56183 25.2628 5.74507
1 28.9468 26.1498 9.32471
1 24.6798 24.7581 29.2327
1 0.86407 18.8414 28.2817
1 23.0379 27.7259 21.3313
1 5.988 24.1068 17.9054
1 18.9003 21.7438 11.4578
1 11.0966 11.0457 6.52541
1 6.93447 10.5487 9.72203
1 2.8151 25.2528 26.8886
1 4.04013 17.1916 29.041
1 12.5232 10.2344 26.2023
1 21.6076 0.890226 24.6106
1 25.3931 28.0548 1.73092
1 1.65213 3.16743 24.0389
1 4.02967 2.55833 4.9108
1 12.8271 26.3927 17.8028
1 5.93674 18.2253 26.0358
1 21.8802 29.6804 29.4717
1 17.3152 8.46755 6.2837
1 4.8484 16.3824 15.5975
1 16.6915 2.96139 7.26219
1 11.868 8.64642 30.0823
1 18.231 11.8327 15.2141
1 22.6435 0.517363 21.3049
1 28.744 22.8995 30.0611
1 29.123 12.6326 17.9611
1 15.9546 5.90992 9.8501
1 0.0931962 19.7346 17.4173
1 3.8102 29.0872 30.1169
1 9.05774 20.2348 2.22145
1 0.830036 20.7754 17.8147
1 23.9428 28.2174 18.4683
1 13.3901 11.6807 0.715694
1 1.86773 23.4484 17.6813
1 15.8111 19.3553 3.01275
1 19.4115 19.1143 27.3362
1 23.6186 5.87212 24.4428
1 12.9728 4.58207 23.1441
1 5.33511 23.2325 13.6408
1 12.5283 9.90773 23.0395
1 19.0685 24.8852 24.0246
1 8.23498 25.7506 22.6072
1 22.2124 22.5547 14.8573
1 0.20582 16.5423 9.14979
1 27.204 0.451618 4.56701
1 26.669 21.2933 29.9268
1 28.5723 14.2555 2.199
1 22.805 12.9476 25.7252
1 19.5951 6.68065 24.9741
1 17.6375 27.249 0.545922
1 3.14677 0.417031 27.3245
1 0.306862 9.3578 19.9844
1 4.49715 5.11506 6.41219
1 28.2006 5.94319 16.7748
1 21.2477 0.420287 11.0774
1 3.06573 0.628848 8.18741
1 18.4355 24.7454 8.92299
1 2.04168 13.5797 25.9134
1 22.111 3.54216 24.2845
1 24.1343 7.21007 24.7753
1 11.9182 7.09003 25.7202
1 9.48263 18.6179 28.0877
1 22.0424 6.13713 10.4312
1 8.29116 28.666 23.527
1 1.79444 20.079 2.22983
1 9.38865 16.9002 26.1159
1 23.8685 2.95855 8.90909
1 12.5574 3.90992 3.6764
1 25.096 10.9447 14.0888
1 23.437 20.4449 17.9386
1 20.5409 2.17076 26.6035
1 9.72494 2.27942 25.5429
1 19.8059 0.330499 21.9972
1 4.23447 23.8091 0.64623
1 12.4181 14.624 8.59933
1 11.1597 3.98214 0.35773
1 7.85746 12.503 10.3612
1 6.07038 28.698 19.8894
1 15.3112 6.93055 19.4985
1 15.8144 14.9691 5.79563
1 4.08895 19.9838 1.12769
1 3.55273 7.6164 12.3708
1 20.8792 3.14013 19.9921
1 0.950788 5.29369 19.9963
1 26.9635 19.4836 18.0993
1 3.34667 16.7196 24.0801
1 10.5037 8.10376 4.45806
1 8.2532 6.72882 14.9642
1 1.13844 16.7091 5.66294
1 5.10052 25.4207 11.226
1 1.43366 20.4604 12.0612
1 22.4696 10.4819 11.7491
1 25.0969 9.88152 21.0689
1 26.5327 29.5281 25.7162
1 3.992 28.7245 9.93193
1 12.5136 26.4282 6.45482
1 8.21569 26.0424 24.1793
1 29.3978 12.6807 24.6116
1 19.9748 11.048 19.8941
1 3.8979 9.04199 26.3472
1 5.3898 6.42099 19.9107
1 15.2283 26.9786 24.8177
1 25.6928 15.8716 15.5854
1 13.8131 22.8608 15.5687
1 1.11464 11.1225 18.6974
1 17.6639 19.3539 5.56047
1 12.4119 27.813 18.1169
1 9.88855 7.69489 16.5093
1 13.6267 0.535908 21.9827
1 2.63354 27.8575 11.6443
1 15.0288 14.2114 21.2742
1 15.7875 3.10117 18.6488
1 3.36528 29.233 11.4338
1 3.05702 17.1185 13.1142
1 29.2569 24.4455 3.38703
1 0.156028 5.76124 21.0279
1 11.8957 19.1857 12.01
1 16.7026 1.52957 15.1585
1 11.4035 9.72119 5.74287
1 10.4599 4.51116 17.2224
1 18.6649 25.8492 27.5256
1 21.8906 14.8674 9.96823
1 10.77 6.85546 2.35353
1 30.3382 27.4685 23.1736
1 6.28397 2.91698 24.0382
1 14.1102 3.31892 13.7779
1 9.77554 4.08859 30.2025