4096
Atoms. Timestep: 3660
1 23.3781 8.50967 12.1764
1 17.7743 24.2561 20.9471
1 5.07388 7.2366 28.9757
1 18.3888 5.71516 26.6496
1 1.07717 23.6618 6.54432
1 11.9847 21.8456 19.7292
1 19.2298 3.11126 7.32284
1 23.7069 1.78706 13.5878
1 17.978 3.22981 6.90914
1 21.2598 15.4041 3.45441
1 20.8145 11.0849 25.0761
1 5.11429 1.44475 12.58
1 8.52485 24.7888 17.9917
1 18.8406 27.3379 28.4283
1 21.1282 25.2027 21.3307
1 0.435508 27.9893 25.4894
1 3.74267 1.65734 15.055
1 7.86918 18.9608 28.4678
1 1.68933 14.3098 4.19169
1 0.545201 3.75131 15.8823
1 9.35213 28.787 8.06494
1 16.9414 23.3662 9.48193
1 15.6583 2.0173 14.7687
1 12.8538 18.7414 25.4558
1 19.1262 6.16519 12.4409
1 22.3843 16.6333 7.13098
1 21.8154 4.25793 11.9688
1 3.08633 4.55652 3.86095
1 21.2603 13.7913 29.6872
1 7.39411 20.3747 26.7194
1 12.7701 20.1949 22.9017
1 27.2936 19.4367 28.8398
1 23.284 14.2454 11.6047
1 15.5815 10.7012 20.3859
1 6.02511 19.4341 10.2135
1 5.72069 24.9599 18.603
1 23.1098 2.86541 4.7088
1 15.4404 0.987937 26.0176
1 7.55989 16.5937 5.19938
1 19.6757 8.38393 24.3424
1 18.9376 7.38993 20.6839
1 24.2587 12.316 3.33819
1 7.66422 15.8934 16.9256
1 17.8446 14.8827 26.7541
1 14.3981 29.2144 23.6224
1 8.33387 30.6252 20.37
1 11.5849 4.65523 14.9311
1 13.3999 6.81673 28.9757
1 5.85958 22.6757 3.35656
1 19.6352 7.25447 13.4707
1 21.6618 1.29653 7.54086
1 20.1149 2.64446 12.0887
1 8.76564 22.7544 19.7429
1 15.7244 7.61318 8.84575
1 8.05354 1.86381 1.30625
1 18.9092 8.96846 15.3366
1 1.69005 12.1425 13.2722
1 9.95451 23.5843 0.196235
1 6.00538 28.6844 29.1771
1 28.9996 15.8772 25.4623
1 0.265938 1.72817 19.7227
1 3.24639 26.2358 5.3026
1 17.6484 12.6226 12.3526
1 10.0963 15.7687 3.05242
1 16.5505 1.96607 5.67975
1 22.628 21.3454 10.5604
1 9.73576 14.9868 1.91596
1 18.2326 16.6384 15.1767
1 28.3587 5.86304 20.9283
1 21.4707 8.75329 13.7256
1 5.86508 29.643 23.3215
1 24.2869 28.7346 6.9284
1 3.44023 5.44156 28.6882
1 12.8844 28.2361 13.0689
1 26.0748 3.19016 7.826
1 24.7288 28.9664 26.807
1 7.70096 28.1875 6.8222
1 2.67756 25.0638 23.3955
1 2.2695 19.189 29.357
1 23.3344 26.0576 25.2284
1 21.8494 2.88472 4.39578
1 15.7662 20.8603 25.3366
1 20.5318 6.98472 14.7121
1 25.8892 21.3786 27.9884
1 23.9863 6.07187 6.29902
1 3.10697 19.9189 8.88447
1 15.8582 7.72756 29.53
1 23.747 1.34018 2.80311
1 15.0392 4.49906 27.9028
1 23.866 11.8381 22.9627
1 21.7456 26.4574 9.98081
1 12.3119 12.1205 5.61773
1 25.252 28.4023 27.8249
1 1.5094 13.7287 14.3643
1 29.5793 21.2878 30.0621
1 14.7729 23.7179 10.9558
1 26.3979 20.9632 9.0734
1 6.5228 9.54435 1.91329
1 25.1559 2.79912 13.8002
1 6.47719 17.2467 4.22472
1 5.38916 7.91566 6.43494
1 29.4834 28.602 21.8455
1 21.5718 26.4191 18.6552
1 14.0739 7.49337 6.81908
1 24.0449 17.8999 13.2807
1 29.5891 17.9841 7.05344
1 2.55673 10.52 14.8003
1 9.79756 26.0007 22.45
1 2.84953 24.8607 13.7701
1 15.1493 22.2142 23.4113
1 2.35653 17.398 7.36035
1 17.0018 15.6906 26.1973
1 22.6551 0.426391 15.1203
1 20.1981 27.1986 2.11045
1 27.9668 9.95111 20.2383
1 22.7231 10.205 17.0089
1 15.4959 28.6224 0.934466
1 28.8164 23.6421 10.677
1 1.3334 23.5383 1.42971
1 20.5877 10.7339 15.9495
1 24.8316 5.48034 21.4734
1 27.1146 22.7273 6.43859
1 12.4327 0.966024 3.1806
1 21.0318 29.406 16.7813
1 1.87054 13.6618 29.646
1 13.5897 3.03327 20.7584
1 26.4405 14.5176 6.4467
1 13.7559 11.871 16.4818
1 11.2106 16.1134 16.3722
1 2.75831 26.5374 13.0956
1 -0.42954 14.3285 18.9602
1 6.20605 7.56554 10.9333
1 5.70498 26.3046 12.0903
1 7.28248 2.26538 25.0343
1 5.26579 20.0858 12.9265
1 21.1722 2.27338 21.7521
1 16.6842 15.3453 8.05805
1 22.8137 15.0161 22.4872
1 12.2649 19.6173 19.3939
1 27.755 25.3176 9.11122
1 20.6977 2.98059 27.1934
1 2.3373 24.3698 28.7489
1 18.0543 3.03599 4.21341
1 14.961 1.72442 10.2525
1 22.6004 25.4715 6.06219
1 21.0487 26.2103 22.2873
1 6.2636 10.8274 15.4041
1 20.9622 4.38325 2.54415
1 17.2093 8.30341 12.0144
1 16.3532 24.7939 12.621
1 29.1929 24.9262 26.1864
1 28.1909 29.6009 25.3397
1 22.6672 10.195 7.12975
1 19.1196 2.93937 2.10613
1 5.19794 23.4849 17.0798
1 1.57908 2.78615 17.8914
1 7.82894 17.3253 9.50349
1 14.1501 7.07774 1.499
1 14.0312 5.55133 29.3897
1 1.41933 14.9838 29.3442
1 20.0517 21.0068 2.16362
1 11.5765 28.2911 13.3626
1 29.762 16.8746 16.3711
1 15.6453 9.65012 27.5216
1 23.6421 2.68694 15.4903
1 0.242969 9.76099 19.6869
1 13.9587 4.66316 5.41987
1 20.7069 15.8393 18.648
1 15.0497 5.06805 15.2132
1 18.2149 8.12362 25.7647
1 28.1775 25.2149 29.6811
1 7.74775 3.816 29.0082
1 11.8532 16.907 22.7445
1 24.1123 9.86988 17.0685
1 0.446942 6.64279 13.9545
1 19.4176 19.1068 18.3672
1 4.25778 18.0869 8.98158
1 4.0244 8.28187 7.11952
1 22.8217 16.953 15.1904
1 5.59725 14.4648 10.2125
1 9.21903 6.80767 14.8279
1 14.6867 8.15306 20.4064
1 9.216 15.7355 17.7284
1 5.40801 30.0016 28.5203
1 29.1576 23.7998 8.07107
1 3.87431 5.92327 12.3537
1 17.8442 4.53027 6.02775
1 4.56048 24.1446 12.4544
1 17.0195 3.40856 10.7576
1 21.0726 1.37561 29.6237
1 19.3243 17.1823 9.01231
1 29.3672 4.0859 1.39118
1 25.0364 15.1087 19.2671
1 12.3804 14.4608 6.90184
1 17.473 25.2446 25.8153
1 1.60201 2.1456 5.41211
1 28.3799 15.6785 11.4901
1 27.5222 11.9262 15.3464
1 1.98978 9.07816 3.03016
1 14.9662 18.0211 2.31549
1 28.3367 28.2558 24.8642
1 27.9992 4.3522 9.19109
1 19.6386 23.789 3.86409
1 15.441 1.81161 8.95801
1 29.3045 23.0041 22.4614
1 13.1958 3.10952 15.6651
1 24.7441 24.5705 22.2713
1 29.5123 21.084 28.456
1 27.9886 13.8021 20.7903
1 3.3848 6.37584 20.3002
1 23.8764 4.78942 9.05461
1 19.4684 2.9699 29.2627
1 20.1639 25.1595 7.42281
1 12.3843 4.98228 26.0258
1 11.2647 4.1941 12.4403
1 5.75475 5.64116 15.0637
1 24.1487 17.0887 23.9745
1 3.85944 2.48425 20.6889
1 28.6419 9.82088 29.3445
1 11.3378 15.9501 3.74588
1 23.9077 12.6462 6.97118
1 10.1352 14.933 16.636
1 19.11 2.70208 20.3587
1 8.73865 18.3712 0.313307
1 22.8152 10.9849 4.65246
1 27.7352 14.9378 22.9804
1 21.3306 15.6908 9.78193
1 28.3241 28.7726 4.27849
1 9.05954 14.3129 29.3808
1 18.145 24.3228 30.3333
1 8.72957 24.0467 21.5219
1 8.27588 14.434 9.92873
1 12.1605 23.7529 10.6919
1 30.0601 6.75733 10.1457
1 4.07834 25.7528 17.7875
1 26.8734 22.4494 15.7955
1 2.07894 5.67593 10.5589
1 2.66673 8.24966 19.2872
1 19.5644 8.61775 28.9907
1 27.1704 22.5841 4.67217
1 8.41832 2.41985 27.2688
1 15.3862 3.29238 24.5913
1 16.8853 7.74295 7.94752
1 11.1718 26.1822 29.8656
1 21.7817 12.7672 7.3926
1 10.4248 16.1624 7.40671
1 1.10998 17.7331 9.99252
1 17.1024 26.7567 7.97338
1 23.7033 23.4193 26.3949
1 19.6157 18.8132 12.1858
1 1.65081 16.832 2.65401
1 14.2878 6.70662 10.4448
1 15.7794 12.1758 1.12984
1 16.6697 9.4741 28.5347
1 9.82791 10.2844 9.86072
1 23.8157 23.4018 19.6967
1 21.3792 28.6798 9.89107
1 0.979761 5.04331 26.4441
1 5.63963 28.4683 9.82557
1 1.55748 29.5581 6.16315
1 8.03486 8.37169 25.3735
1 11.1523 3.055 24.4649
1 20.3155 17.1096 5.21375
1 5.00889 14.5203 21.3476
1 3.65622 13.0567 15.536
1 10.7182 24.9685 14.1881
1 8.13872 1.09458 23.0444
1 11.0318 10.2162 26.2893
1 29.6073 4.53554 8.76052
1 30.6824 26.5526 9.14457
1 5.9394 4.08538 11.9388
1 11.2089 9.65476 11.9376
1 22.3562 9.51656 23.0377
1 1.91095 12.2152 2.75363
1 29.3183 13.6676 20.0834
1 6.12886 13.5975 1.44018
1 0.657785 0.848449 8.90245
1 6.48804 27.4634 16.6789
1 9.58214 18.4008 20.8018
1 11.4609 3.67685 18.4456
1 10.9209 12.4249 9.66197
1 1.76056 26.9434 19.747
1 12.4263 10.1228 25.7966
1 23.928 26.2775 4.5158
1 26.9822 0.994031 10.2633
1 12.8144 28.3128 25.1024
1 13.2837 27.8966 16.8353
1 24.6174 20.4517 5.52493
1 18.8626 1.74321 9.83126
1 12.2134 14.9775 8.20684
1 9.57782 15.357 11.9107
1 22.1673 27.3171 9.04853
1 1.51003 19.0267 27.3006
1 12.8958 15.9784 13.2876
1 29.5631 17.9347 24.0852
1 30.1032 18.0063 15.4983
1 20.1089 8.44603 0.70046
1 9.06349 22.1286 28.5189
1 14.1913 21.507 11.4812
1 22.3154 24.308 6.89885
1 18.0664 14.8217 16.8085
1 23.8572 7.96588 22.5724
1 25.7533 14.3002 29.4414
1 5.18453 18.5193 19.6434
1 9.34905 22.3795 5.73159
1 24.5285 28.8359 4.35776
1 11.8141 20.5272 26.1194
1 24.9039 20.5771 28.7275
1 12.1435 25.4495 23.8736
1 17.6887 30.3929 12.6567
1 25.3331 12.5049 14.0349
1 28.012 3.82521 6.88309
1 23.7704 2.80368 20.0631
1 24.3579 12.0533 10.0353
1 22.1851 3.57504 19.1334
1 4.60431 5.3015 27.7916
1 21.9997 2.043 24.9671
1 9.15368 5.84643 20.2787
1 19.4023 28.9122 22.712
1 21.2531 11.3798 28.167
1 19.7631 17.3012 15.4832
1 24.1195 5.48864 16.4144
1 6.26024 17.0199 21.1288
1 13.3313 1.22431 12.415
1 11.6586 22.78 18.3606
1 11.6126 22.2093 10.2599
1 7.7677 24.303 12.1344
1 15.3355 19.8143 23.4008
1 2.91984 18.5314 2.68296
1 8.55861 4.59087 15.7964
1 26.1714 26.9444 12.5537
1 24.6705 1.58463 19.6725
1 14.0266 2.81942 22.1825
1 27.9128 18.0924 0.526749
1 16.9025 6.54532 4.69818
1 1.99645 5.25619 30.3476
1 19.5334 3.88853 11.4178
1 19.5294 9.45315 30.2964
1 20.654 10.0621 3.03676
1 27.8391 24.5091 2.7367
1 2.27947 2.50829 23.9627
1 16.4546 24.0285 22.7443
1 23.777 21.0132 13.1622
1 26.6468 8.25641 16.9024
1 1.7449 24.5719 20.9874
1 29.2301 0.377576 12.1689
1 1.01095 15.5652 24.3827
1 12.139 20.8509 13.6805
1 27.8043 8.72518 10.797
1 8.7941 10.8777 10.807
1 14.4016 5.2984 11.0844
1 13.1114 28.5713 27.6044
1 9.8576 15.2604 21.9141
1 15.4417 7.00481 0.466655
1 9.79457 2.13036 29.5047
1 3.12894 3.00597 17.2805
1 26.8592 28.2249 18.6833
1 22.4064 21.4548 19.0776
1 6.02512 27.1965 1.2557
1 16.0836 4.46619 8.22424
1 3.90505 13.2248 17.2763
1 22.1117 23.8166 26.4871
1 24.132 27.2617 12.9983
1 22.986 29.0744 23.4141
1 8.60688 8.22227 10.0578
1 12.6331 18.5839 1.1275
1 7.66165 26.0876 22.7723
1 23.1345 0.680626 3.97238
1 9.53533 27.2896 17.3361
1 7.05763 25.5338 28.1836
1 1.08467 2.06848 16.5491
1 20.564 21.7663 1.11078
1 8.12894 7.82309 8.76066
1 0.684512 9.60996 23.1698
1 8.49528 14.7042 8.53886
1 13.874 4.85243 28.0404
1 23.3575 16.094 27.7834
1 20.6055 19.9816 29.4449
1 21.2525 8.36879 7.44593
1 8.36629 20.3789 27.7768
1 25.9805 2.61447 11.6537
1 6.03139 6.98135 24.812
1 29.7105 9.76684 4.12984
1 28.7536 26.3055 21.3976
1 17.6732 24.645 9.56896
1 7.94035 7.29762 20.5941
1 29.4547 3.33559 0.414522
1 6.94735 4.22628 26.626
1 2.46482 10.3208 10.0706
1 19.0575 26.6083 15.8863
1 23.858 20.6907 19.2234
1 0.765333 12.5047 17.4736
1 17.6639 1.22357 21.8409
1 22.3724 25.3447 22.0147
1 9.94712 10.3253 14.0266
1 9.51745 21.1811 4.72871
1 22.3957 20.3271 25.1437
1 27.2281 2.36707 11.0689
1 15.4988 21.4206 27.8896
1 18.945 16.8315 25.3422
1 6.71297 4.33569 27.8844
1 20.6529 10.6232 9.53425
1 13.129 20.5471 28.3771
1 29.7451 8.84636 13.9069
1 30.0195 17.3268 4.48377
1 4.18731 1.39413 24.0701
1 2.47371 29.9925 20.726
1 28.7492 7.25361 15.9029
1 20.2195 7.60484 17.7321
1 2.25841 18.0545 17.1395
1 3.45369 21.84 3.88989
1 1.47915 10.9857 28.0459
1 1.22545 16.0176 18.0239
1 20.3942 2.84941 6.51058
1 19.1278 12.7541 14.3262
1 29.3331 26.084 14.103
1 7.86416 4.37548 21.4074
1 9.52664 25.976 27.2735
1 7.0535 7.48766 22.1761
1 0.278517 10.8105 1.01156
1 12.5593 24.7 5.23909
1 29.7763 30.221 0.945359
1 10.7861 28.0474 4.41608
1 2.89933 4.27717 29.1587
1 23.007 22.5333 7.88471
1 25.2465 27.9721 3.53378
1 16.316 13.2803 3.83876
1 10.7328 27.2282 14.1275
1 19.1079 27.1641 9.78902
1 9.26624 1.0172 1.52937
1 10.2859 22.7749 2.82174
1 16.9596 20.6783 27.8426
1 22.5374 23.0149 30.4246
1 21.3406 4.26249 4.05096
1 16.8601 17.6978 8.12569
1 12.491 0.662593 21.9909
1 18.1459 13.5108 15.9616
1 11.7398 11.9635 17.8562
1 6.4085 19.3342 19.4287
1 4.3207 28.6195 20.8083
1 1.98378 19.396 9.24946
1 17.6499 8.12864 17.1028
1 3.77805 12.7454 2.63042
1 7.41084 0.301975 5.42588
1 4.06926 13.7994 3.68854
1 18.8281 15.58 14.2832
1 25.6223 17.0848 24.096
1 29.2029 27.6629 11.5797
1 2.10722 18.747 7.05302
1 18.4329 22.9531 24.0627
1 12.6383 0.226793 17.9136
1 27.7794 1.93943 27.7071
1 10.0916 7.2057 24.2753
1 14.7255 6.9216 8.09682
1 1.63382 20.198 10.7154
1 10.7108 15.7223 9.95031
1 7.53271 25.1278 3.46865
1 12.8131 9.25337 5.90849
1 21.8262 22.5272 20.8732
1 9.90695 5.28257 19.1291
1 6.86446 1.22251 22.1181
1 9.40363 7.13898 17.5616
1 7.31178 14.3556 20.8718
1 20.7218 4.73496 24.9117
1 12.6604 11.1935 27.8366
1 0.226613 17.2334 14.1264
1 21.4075 4.20872 27.4419
1 27.1314 28.5643 6.36368
1 17.195 29.1111 11.8784
1 4.5433 29.3409 2.65255
1 5.15777 21.7703 6.9564
1 21.301 22.326 15.4064
1 11.5597 6.3514 4.09905
1 15.4749 13.2382 18.1114
1 14.6479 17.8611 6.60511
1 22.8275 11.8153 12.2344
1 8.76401 20.0755 12.6811
1 28.7052 4.75094 17.5534
1 26.256 10.0582 14.1325
1 9.92653 27.4167 7.62293
1 0.771726 9.78801 28.6316
1 23.6784 1.3914 17.4582
1 30.1083 16.6047 26.1084
1 15.6761 23.543 8.62346
1 10.145 20.5938 15.5582
1 7.48884 16.4131 29.98
1 10.1653 15.8703 14.2738
1 25.4534 11.376 11.7727
1 12.825 9.33333 23.6011
1 25.3461 11.5424 19.9182
1 2.95127 11.1706 17.1123
1 30.2035 24.2027 26.9646
1 12.5271 25.9768 4.10887
1 8.91575 16.0472 26.3201
1 16.5163 5.67432 10.2786
1 8.36541 3.93814 2.96196
1 9.67672 5.28224 30.1396
1 23.3084 23.4092 10.5384
1 21.8796 10.9874 16.1354
1 16.7453 5.15786 4.16744
1 13.5209 13.0516 23.6004
1 16.694 8.01787 18.1334
1 24.7502 27.179 22.9607
1 25.7516 1.54411 21.7951
1 24.9227 16.5794 5.75263
1 14.6327 21.0614 7.57894
1 18.5237 10.0268 2.39264
1 6.62076 29.1696 11.0203
1 29.5047 14.9609 28.7951
1 20.2929 7.23126 25.1599
1 2.76518 15.4671 0.989279
1 16.5161 9.03074 14.1429
1 15.0895 15.3063 27.8198
1 27.545 5.59033 25.0583
1 13.3457 9.26131 24.9827
1 19.2018 13.0446 1.04529
1 16.1139 20.7328 20.0253
1 2.45841 27.4054 24.1093
1 24.3087 28.0126 15.3142
1 1.77417 9.89765 22.2998
1 6.38558 28.4926 5.7355
1 16.4361 11.2521 19.4364
1 25.3406 16.4392 21.6588
1 4.69403 26.9521 3.45641
1 12.1865 18.1239 15.0583
1 8.76883 26.2348 20.1042
1 8.1916 3.30568 19.2402
1 25.9737 14.3164 0.535597
1 25.3811 3.92669 6.81662
1 17.1472 0.35226 24.3102
1 11.5234 21.0926 0.133656
1 19.5627 26.1412 25.6041
1 14.0869 27.4817 20.9329
1 16.3491 27.1825 13.4382
1 4.81973 9.04549 19.1556
1 19.133 19.2996 27.0085
1 7.26326 18.049 12.5467
1 23.008 21.0545 24.2812
1 24.2118 23.2307 22.6858
1 27.5937 11.8848 30.2073
1 24.7281 24.1337 26.2753
1 1.01015 13.2134 23.6628
1 4.39485 11.914 13.4547
1 24.4578 4.2437 0.955797
1 21.8952 28.4821 23.0885
1 13.4989 30.328 5.1129
1 15.1613 15.879 8.07074
1 20.4052 20.5373 9.64217
1 14.9849 28.3128 19.0679
1 26.1981 7.64833 6.78754
1 6.3787 18.9314 29.1547
1 8.18256 13.5378 16.3724
1 23.2521 23.2839 3.75309
1 20.1917 28.2575 21.781
1 25.305 20.2453 24.987
1 18.4662 24.2179 12.9086
1 14.6601 27.8031 3.04276
1 29.2794 7.72476 0.384668
1 23.2657 13.1309 0.216552
1 22.2906 8.79744 1.67075
1 27.5737 20.7506 21.781
1 6.0462 23.8072 29.7466
1 27.7058 18.8607 23.542
1 6.3344 22.1783 11.8186
1 6.38383 16.0524 1.97552
1 2.33848 15.4161 26.6512
1 7.73662 12.5557 19.716
1 29.2957 1.2464 28.2024
1 26.8742 28.1757 1.56289
1 20.1788 11.1237 7.08993
1 7.24479 30.3074 10.486
1 14.9531 26.843 2.03537
1 1.60524 19.5811 15.2572
1 28.2229 13.5166 26.928
1 13.711 9.43222 2.31972
1 7.76809 21.9296 11.5301
1 19.1341 26.5637 13.3412
1 5.51288 23.5636 27.4866
1 30.892 0.858931 18.6536
1 26.2203 8.62479 21.3921
1 2.6134 12.4906 26.4752
1 15.1057 15.3635 16.6521
1 1.11952 7.85721 2.92058
1 24.5867 29.0657 21.3017
1 24.3802 2.31725 28.6721
1 28.2656 0.496242 24.3426
1 12.6582 15.1408 24.5357
1 13.1074 4.3592 29.9931
1 1.33858 18.1997 13.3213
1 23.8405 16.8803 9.14423
1 29.6765 19.7093 28.1631
1 5.0761 29.1412 17.1778
1 13.4639 3.21076 0.417623
1 4.86638 20.5764 7.03508
1 15.7113 0.980691 21.7143
1 5.37977 19.3226 27.0119
1 24.7112 1.27943 24.0603
1 7.66348 2.00515 18.5866
1 11.2417 18.7413 8.50505
1 18.8407 25.059 18.7601
1 5.07656 2.23982 3.27019
1 20.8939 3.93011 5.67456
1 12.7988 25.8341 18.6261
1 2.22783 27.8095 15.9955
1 30.2067 10.8035 22.9724
1 23.3668 29.7784 12.8459
1 28.526 12.8899 29.3837
1 22.7535 20.0955 13.6923
1 12.7035 2.29883 2.75393
1 28.0208 13.3532 1.6567
1 25.2046 21.6809 1.0113
1 22.0983 16.2586 24.6013
1 6.48698 26.0387 19.3067
1 17.771 21.8766 1.13175
1 14.6141 10.1697 11.5777
1 14.9894 19.1453 21.9787
1 19.3986 4.95922 19.9707
1 8.32077 25.5941 11.8218
1 27.7695 10.3692 24.054
1 15.1243 19.7485 20.5979
1 5.62533 23.7025 22.3766
1 26.2139 3.09406 12.8561
1 11.3759 10.4619 27.8638
1 15.6558 2.39005 22.4142
1 19.122 1.39978 14.8572
1 24.4837 1.32524 7.56925
1 8.31958 23.6482 10.1226
1 19.1436 11.4141 26.8635
1 2.1624 18.9359 1.59276
1 16.7459 2.56949 28.8897
1 27.284 26.3017 10.1877
1 11.1246 21.1859 5.07742
1 18.3795 25.6594 21.3568
1 26.6406 29.0238 9.2949
1 19.9278 30.1235 22.6154
1 9.10676 9.73205 1.92344
1 0.59608 2.7893 26.4655
1 24.5213 9.41491 1.74766
1 9.34029 15.506 6.5152
1 1.26578 29.7733 13.1456
1 28.5193 19.0108 28.4321
1 19.7117 28.4828 11.0025
1 28.53 5.8533 19.4887
1 15.3587 14.1815 10.9034
1 28.9929 20.2002 1.70259
1 16.8193 17.178 21.7047
1 28.2213 6.91209 30.0146
1 10.0241 25.7013 19.3359
1 15.7863 28.7886 3.4066
1 25.7624 23.9889 12.2917
1 16.1816 29.0947 7.84553
1 15.8888 7.04605 10.2156
1 9.82342 26.8759 6.31951
1 23.2539 24.8208 10.5532
1 14.6808 11.7041 9.44088
1 15.9581 5.82125 27.981
1 15.591 2.42818 26.0268
1 20.1022 29.9034 7.60152
1 16.6515 9.58231 15.3766
1 1.56563 15.2123 12.4435
1 28.1876 27.5968 26.7163
1 22.1383 22.7218 10.6892
1 28.3144 25.8466 15.0801
1 11.5657 12.1762 1.42187
1 10.5126 23.9926 2.64193
1 9.20121 16.5923 5.32513
1 13.653 4.01352 22.7787
1 18.9504 21.6283 14.7619
1 29.346 4.56899 22.7196
1 7.01092 8.82988 17.4169
1 20.932 26.661 29.8846
1 12.9797 23.1704 8.26785
1 8.85251 12.1705 20.4374
1 2.56019 30.0819 13.3254
1 3.24612 17.4546 10.0454
1 11.882 7.45232 1.70594
1 27.6231 16.325 22.749
1 26.2161 13.3633 22.726
1 0.285048 1.68472 28.8509
1 7.7643 5.30214 22.5386
1 25.7747 23.019 7.47095
1 5.2694 24.4826 6.44501
1 17.566 14.004 23.2762
1 28.5973 10.0485 15.3627
1 15.0358 5.99271 22.8056
1 29.0109 20.7299 9.41301
1 10.4738 26.283 1.61564
1 0.936583 22.9291 0.0834336
1 7.29863 14.1867 1.8987
1 27.6419 5.21272 1.49917
1 8.04682 6.3876 6.49842
1 18.0654 20.7472 10.3504
1 7.7737 19.469 0.879853
1 25.8505 16.5362 12.1155
1 9.96809 24.5733 18.0576
1 6.42861 29.1557 3.35195
1 3.70601 29.4718 23.3521
1 13.7977 20.6318 20.6465
1 7.35859 2.67344 16.3007
1 4.98174 18.9256 23.7907
1 4.43322 4.83495 1.26245
1 24.3399 9.56841 20.9029
1 3.01303 19.6766 6.34176
1 13.3054 10.3955 26.9373
1 8.94125 29.9513 22.5528
1 7.83297 30.4465 13.6871
1 11.798 19.6564 3.19369
1 12.0534 11.7817 7.41553
1 22.7273 28.7419 19.9667
1 11.6403 28.3567 1.20392
1 18.1802 28.0076 11.4284
1 17.791 24.0916 26.2857
1 20.0887 19.381 3.85545
1 4.03302 11.5182 4.67807
1 15.1302 9.21123 5.63885
1 19.5969 6.57705 2.56929
1 3.80446 27.2296 18.2889
1 17.7739 10.8132 27.2423
1 2.70675 6.16988 9.36821
1 20.5118 29.7236 2.02581
1 27.1885 10.0869 10.883
1 17.8947 21.4988 26.0384
1 8.86595 3.98468 12.9539
1 18.1375 28.9414 4.15544
1 22.289 5.44908 23.3131
1 19.3456 2.02021 8.15818
1 25.7671 9.64788 10.8956
1 21.2196 0.236567 11.9332
1 11.6568 13.3268 29.6283
1 25.4467 9.40549 23.343
1 22.1177 12.3252 11.2475
1 29.3755 8.48977 29.4808
1 20.0714 16.9297 1.62037
1 7.29168 21.7769 9.04199
1 15.9895 10.7563 11.3026
1 28.8394 10.2456 22.1649
1 26.4324 9.10087 29.6195
1 18.2937 8.80454 24.4893
1 8.54637 9.57182 21.9743
1 11.2341 3.68677 11.212
1 5.99824 8.61413 20.0334
1 4.30839 13.7584 27.6611
1 20.5607 14.998 6.63583
1 10.3613 20.0216 10.4089
1 11.3613 9.52285 18.5039
1 25.6907 12.3563 26.557
1 5.12477 4.06283 6.8413
1 18.7101 18.1213 11.4876
1 24.7252 10.4454 6.23215
1 11.3821 17.0179 15.3575
1 26.1591 7.72073 2.34768
1 1.02782 3.64849 13.9994
1 30.012 7.27178 13.0972
1 13.111 6.92603 24.6288
1 2.72186 14.7937 22.6527
1 27.7065 2.21912 2.67253
1 24.2007 17.2709 14.4442
1 25.1239 17.1678 2.66827
1 24.7406 26.1435 19.0849
1 29.9583 29.9385 21.9119
1 6.31688 13.4653 21.2402
1 20.4462 9.01646 17.5344
1 21.7528 2.89246 9.16831
1 1.70655 11.4141 14.9519
1 11.2409 23.7043 29.9722
1 6.5223 7.0917 13.3657
1 14.1296 22.0538 16.109
1 9.97263 7.38622 6.95784
1 16.7771 24.1085 6.56111
1 25.458 29.6829 20.1418
1 4.84386 3.63761 0.408981
1 18.17 10.7543 16.7321
1 11.6609 7.05786 27.1875
1 23.9393 0.279963 25.1519
1 28.5023 15.2094 4.21558
1 15.8333 9.87332 26.0407
1 18.8606 11.7375 22.9053
1 25.149 18.4904 8.01203
1 16.0501 28.5188 12.85
1 24.1011 18.9021 29.9689
1 9.07585 28.1006 10.6733
1 5.69778 14.6772 29.6146
1 19.0908 25.019 28.1841
1 1.11895 4.96741 5.28655
1 21.989 10.0395 19.1163
1 13.1015 28.0531 1.40589
1 4.65158 26.8463 28.0997
1 3.75437 6.70618 29.0326
1 4.21615 26.6855 24.6128
1 2.7027 5.57124 24.8958
1 26.491 11.5008 29.1906
1 29.6926 9.57775 12.6116
1 7.37187 26.0145 6.52953
1 16.6133 27.7902 25.1345
1 5.99685 26.4184 6.9841
1 22.4139 8.32895 22.3089
1 6.86938 8.8444 8.40945
1 28.969 9.50132 21.0871
1 3.79786 1.45123 2.69324
1 9.53993 28.2552 21.0148
1 16.0667 13.2442 7.12519
1 17.4849 8.23147 13.2681
1 8.63447 27.4908 0.926474
1 19.4219 28.4686 27.7189
1 26.8539 10.7377 28.2467
1 23.2229 18.1685 23.2126
1 10.952 26.1443 13.4633
1 14.3766 6.80255 24.1251
1 25.6656 17.3618 20.4214
1 13.5787 21.5239 6.53086
1 17.1212 14.2662 4.11415
1 7.34042 17.7224 6.31646
1 8.34712 20.6768 0.103368
1 5.75825 5.12823 28.5267
1 24.0087 19.2114 22.6363
1 14.1913 20.1632 4.43096
1 7.62199 8.95875 24.1504
1 27.5738 29.2152 0.949344
1 29.0081 10.9469 27.2717
1 0.511446 18.0344 29.7963
1 1.46492 5.05263 25.1571
1 29.2094 10.8352 9.18523
1 8.64708 26.4548 3.55118
1 4.25683 16.8945 24.5293
1 22.7408 1.90956 27.2629
1 0.604479 2.85426 29.4968
1 3.30538 0.606484 23.0778
1 12.4633 7.60012 11.226
1 29.966 23.0729 13.5915
1 12.5353 18.4442 8.97975
1 28.8193 4.5753 3.33063
1 22.0854 22.7511 3.79996
1 19.5024 9.87963 21.0498
1 2.73613 6.63164 1.91488
1 21.2359 15.6991 25.8389
1 16.4754 21.3595 5.19728
1 6.97457 26.186 16.26
1 18.4175 20.2735 18.1346
1 21.8029 12.5459 30.1633
1 5.32938 16.8798 3.86785
1 3.00256 2.5575 2.31524
1 8.416 3.25734 21.8658
1 0.97265 22.5611 19.1354
1 11.5129 10.1286 20.7968
1 2.09723 9.63778 11.2233
1 8.59064 9.15205 27.7659
1 22.203 1.31941 22.3113
1 3.73295 1.68396 12.3715
1 3.65473 7.37644 2.71292
1 3.10675 12.2274 13.118
1 15.4582 25.1485 9.14613
1 7.31159 19.3447 18.5617
1 15.8309 10.5924 15.7348
1 23.634 20.6656 9.69786
1 9.23239 0.895961 16.6318
1 14.6163 24.3341 26.7549
1 29.496 7.58991 22.5168
1 6.25001 27.5039 19.1847
1 12.5136 18.9824 16.3223
1 19.2676 10.7117 11.9955
1 0.510585 19.1813 15.934
1 20.8175 7.21403 19.0079
1 23.7497 9.90101 28.2486
1 9.10911 4.43108 26.3767
1 23.0826 21.4802 27.8015
1 4.62836 27.5987 15.5016
1 1.56968 17.4668 18.364
1 20.832 25.891 26.103
1 0.462874 21.7936 5.24358
1 22.0069 5.85591 30.0454
1 2.37228 20.3312 16.3186
1 19.8367 11.907 11.554
1 6.50885 16.99 23.2687
1 26.4064 4.311 5.78263
1 27.576 22.2111 0.312939
1 29.5725 24.4212 16.3796
1 9.90049 18.3083 10.2871
1 11.6977 20.1941 28.8142
1 25.6433 29.0529 15.1088
1 13.0281 15.2515 9.60637
1 4.36438 13.1883 1.31668
1 28.8057 29.2611 19.3818
1 15.2057 14.8032 14.2059
1 2.14199 24.2118 6.1724
1 10.5428 9.52642 6.48159
1 24.5383 25.5946 10.6774
1 5.10083 6.47247 18.5971
1 8.94954 21.4298 12.3502
1 10.9823 14.4738 27.1108
1 25.9272 26.6854 16.9299
1 23.9268 28.1172 23.8273
1 23.5615 14.4377 30.1278
1 14.4195 2.21571 7.98426
1 20.2341 13.9126 13.5427
1 4.15058 25.244 21.5126
1 24.9712 11.7425 7.06092
1 7.77344 5.39725 2.93601
1 22.3127 -0.0484547 0.883392
1 17.6674 17.9663 20.9647
1 22.0494 15.8002 28.58
1 29.2772 13.242 10.2341
1 24.216 14.3027 9.17869
1 11.6198 16.1878 24.0566
1 26.6754 1.67416 28.5546
1 5.59865 9.54362 29.4725
1 0.906839 20.6792 25.8369
1 11.2245 19.3501 28.0572
1 28.0002 11.5322 20.1118
1 24.7921 13.0053 22.6257
1 2.53595 15.6169 29.8932
1 13.4675 7.41451 13.9359
1 28.7442 6.39444 23.1541
1 11.2781 15.9352 8.61109
1 5.1221 13.7889 19.9565
1 16.1102 14.0792 21.3678
1 25.0565 29.6297 18.7998
1 27.3781 12.6609 20.9906
1 25.5454 9.9906 0.991194
1 2.61654 29.1576 15.4033
1 20.3694 25.8648 2.59504
1 19.391 21.6847 27.7467
1 5.65228 21.6238 25.8288
1 12.626 28.0902 26.4876
1 23.3704 23.3648 16.0919
1 9.14699 19.8207 5.26968
1 6.06337 1.10483 3.60621
1 6.08738 24.4435 28.5224
1 25.6323 23.8745 10.0403
1 25.3747 25.745 16.2537
1 2.95435 20.9398 12.501
1 14.8971 4.05926 10.5811
1 17.9418 20.9376 30.0621
1 16.5129 20.1372 7.55303
1 10.2805 23.0481 16.3889
1 20.7944 14.9928 20.9574
1 18.1093 4.24425 4.71621
1 16.2534 29.0798 20.8851
1 22.8688 19.7432 15.1337
1 18.2366 2.33617 1.12201
1 13.8633 7.80268 4.01663
1 28.9436 20.1911 25.3856
1 7.30963 5.92536 7.65358
1 2.64152 11.4413 5.21188
1 9.98262 18.8481 5.28466
1 3.68062 23.9349 29.2588
1 0.28992 2.78061 24.9315
1 25.3056 10.2431 20.2404
1 16.5966 20.441 0.343281
1 7.95884 10.0221 13.4272
1 12.7609 9.41349 10.0565
1 14.3903 4.95262 21.9653
1 4.01898 27.464 26.8653
1 29.5445 14.1828 4.45361
1 11.6505 16.3938 5.39507
1 3.26056 26.5791 11.7821
1 1.63952 29.7493 24.1851
1 11.071 9.95665 15.1869
1 22.2902 19.5763 8.34701
1 1.83912 22.4379 10.2395
1 30.1551 6.9076 8.57974
1 2.62491 24.202 27.0205
1 10.805 1.62686 6.50246
1 14.1045 20.9588 18.0882
1 28.6221 18.858 24.7025
1 18.6094 10.7066 18.2521
1 23.0759 22.4196 20.3697
1 15.1964 5.59792 30.4943
1 11.6597 19.8893 4.55459
1 23.9294 5.32171 17.7813
1 12.3412 8.25506 13.6305
1 7.76749 0.914265 24.5295
1 10.4919 6.41063 10.5947
1 26.3441 29.7751 6.00196
1 17.1602 28.927 5.52144
1 8.29682 4.25811 24.4445
1 7.19152 16.1931 14.4183
1 17.3012 8.68492 23.3771
1 16.0288 20.4001 17.4936
1 18.3255 26.1674 27.7168
1 28.5507 14.2614 25.808
1 26.8989 19.0428 10.4541
1 9.53788 14.1445 25.1512
1 29.98 22.5455 8.31636
1 0.706526 18.5611 1.15331
1 11.1022 8.47361 3.68228
1 9.23808 7.3196 23.1409
1 21.3742 12.1401 24.1209
1 26.5226 28.688 23.3905
1 26.9868 16.4465 16.8264
1 15.4438 29.6079 10.0251
1 16.8536 27.0802 22.7141
1 9.53896 21.6363 22.1886
1 8.55366 27.3589 4.68735
1 22.222 5.41506 21.006
1 22.8847 11.7213 21.8162
1 23.5243 4.74101 3.4677
1 2.94073 28.9111 6.67666
1 6.01939 12.7303 24.0634
1 26.9137 2.98881 17.8436
1 10.278 11.1338 28.4916
1 4.40327 11.4543 3.33678
1 22.7405 12.8121 17.7948
1 13.8212 19.249 24.752
1 18.9229 3.27887 22.9486
1 8.91762 2.32581 16.4904
1 15.6102 22.3081 28.8671
1 21.0618 24.1381 7.89802
1 11.7061 15.2685 19.3969
1 26.6738 12.3449 1.56261
1 14.9295 16.3583 6.8297
1 24.369 6.52323 0.541596
1 24.6624 1.9812 11.0843
1 24.5367 8.65793 8.65132
1 21.6727 11.2746 22.6273
1 26.6399 23.2272 -0.0764962
1 4.39712 28.3922 13.6727
1 3.68694 28.0247 2.85474
1 15.6937 13.9768 16.7366
1 5.50041 14.1084 4.19501
1 3.94597 3.90467 7.68812
1 4.88217 21.634 3.98211
1 5.74779 3.12074 2.32049
1 9.02074 7.2833 1.2138
1 29.3214 17.1926 -0.307618
1 8.91006 6.87364 26.9788
1 7.65835 19.9081 4.86383
1 27.8196 28.8343 21.4055
1 12.4325 29.8832 28.1149
1 6.46267 11.405 7.63872
1 23.9204 19.1005 18.826
1 21.985 25.2444 10.5751
1 16.4676 4.52418 14.8553
1 0.494152 27.2711 0.790101
1 26.7444 5.14677 21.6581
1 16.931 19.9749 16.3999
1 14.3148 26.3565 8.77531
1 28.7515 24.2089 9.48069
1 23.3033 25.4935 28.954
1 7.59429 19.739 7.49691
1 27.8648 26.9289 16.074
1 29.849 28.2961 16.1145
1 22.1993 21.5221 7.11428
1 7.00369 15.2145 5.85687
1 4.52328 3.12388 10.2579
1 6.08899 27.668 28.2462
1 3.37023 19.2657 28.2515
1 12.1454 4.82861 22.9807
1 20.8542 0.483632 26.5627
1 16.9009 2.71137 3.50269
1 5.17842 1.88252 26.1119
1 5.44359 24.5844 1.77011
1 16.1119 27.2729 18.9431
1 1.68625 19.5016 21.8523
1 14.7017 25.843 17.467
1 21.6766 2.49575 6.69062
1 2.54288 19.4004 17.421
1 14.9496 29.467 7.06045
1 8.3024 4.98728 29.5614
1 15.74 6.45807 16.9499
1 22.6935 30.0041 24.5199
1 26.4761 25.8317 1.34513
1 25.4618 15.0842 14.1463
1 19.068 7.37147 15.5687
1 0.364765 24.7838 21.5668
1 1.15278 25.4397 25.2573
1 7.92359 22.4505 6.02648
1 28.7465 18.1787 21.4061
1 28.1629 1.52222 14.485
1 16.1346 11.5509 9.19617
1 3.68832 20.5703 19.6622
1 15.6268 19.4874 2.17896
1 19.5461 26.4731 24.1068
1 23.129 2.74234 25.4855
1 17.8003 29.9553 26.8108
1 2.43378 1.6582 14.4609
1 14.6403 9.9008 25.3427
1 18.9268 23.5208 21.5615
1 8.0612 21.134 28.9885
1 21.1653 21.3704 16.7428
1 28.1468 17.9949 2.60991
1 27.4923 6.03543 23.6551
1 25.2355 22.6187 30.3811
1 25.6962 15.7894 2.38092
1 19.4319 13.7384 25.1613
1 18.5312 5.27842 25.3339
1 16.7966 2.87847 1.24149
1 3.76933 4.80944 24.8076
1 9.43695 12.6415 21.675
1 3.02293 5.25377 1.25993
1 0.215699 1.04112 10.2026
1 25.5233 2.72766 4.59316
1 3.31868 0.728173 8.39823
1 13.9744 29.3345 7.92016
1 2.48001 15.7179 21.6034
1 15.636 29.4087 19.6258
1 25.2949 5.95187 25.3553
1 10.6959 7.72144 27.9124
1 10.899 21.6373 26.849
1 13.2184 11.9982 13.3366
1 13.3792 29.4023 24.6809
1 3.74791 20.2588 0.747018
1 7.17057 21.6131 26.2524
1 26.0197 1.50803 7.73977
1 18.1573 8.66364 6.9322
1 3.66405 11.7219 7.34377
1 27.2472 26.3539 21.232
1 19.6614 6.4812 23.1062
1 6.01642 1.46473 0.341994
1 19.1956 29.7854 18.9428
1 2.73462 28.0785 26.9642
1 8.58473 7.8801 3.88062
1 1.38591 1.40388 1.67761
1 9.61141 17.6066 5.85267
1 5.52275 22.5627 16.0814
1 8.44041 5.70439 14.8692
1 23.0471 12.2633 7.95479
1 4.14196 17.7195 0.558583
1 29.142 3.70473 11.2734
1 16.5974 4.50785 19.4115
1 29.9829 25.4881 25.0365
1 2.46607 15.0413 18.0953
1 3.12271 18.9217 0.572389
1 5.06952 9.62424 1.69719
1 9.19199 12.021 17.7614
1 1.40863 7.53325 4.48399
1 3.37316 27.6765 1.35672
1 7.81553 21.0102 10.3
1 27.2633 6.48356 19.0368
1 21.6731 7.26152 29.5107
1 27.1823 1.57025 26.3887
1 1.48722 26.6128 6.89031
1 17.3427 21.3058 7.50512
1 7.02486 26.5387 29.2905
1 27.0314 14.426 25.9518
1 18.4454 13.1935 22.4673
1 5.16647 11.2124 25.803
1 10.0964 6.14947 21.4974
1 11.0557 29.1156 2.39601
1 27.7419 17.2542 17.7599
1 19.983 22.4179 14.8688
1 24.7821 13.7072 24.8488
1 15.3382 20.2082 6.8213
1 9.66281 0.772191 15.2359
1 13.389 9.93893 15.673
1 10.8275 1.31018 19.1718
1 5.08816 22.7477 8.54802
1 16.3377 16.9836 18.2552
1 19.437 2.74036 13.7486
1 28.1463 3.13217 10.1365
1 3.85378 17.2217 7.64211
1 30.3467 26.9495 29.7583
1 24.4862 4.04204 18.2678
1 14.467 19.6149 16.1617
1 11.1564 4.85355 19.5346
1 7.64038 13.2431 4.42446
1 15.8834 1.39744 17.2055
1 9.50691 29.2648 23.3827
1 17.2585 16.0335 9.87531
1 7.63988 11.7426 1.81599
1 28.1741 21.679 28.1764
1 7.67089 29.2589 27.103
1 15.9992 28.6401 11.177
1 18.8656 30.1859 3.91147