4096
Atoms. Timestep: 600
1 3.86095 2.81955 15.4134
1 26.8227 14.1005 26.317
1 3.39676 28.3169 16.596
1 5.51124 6.52449 1.86093
1 23.2515 14.7701 6.36823
1 11.5955 18.7286 9.1808
1 11.7935 2.7339 9.74292
1 27.3731 26.5063 1.48651
1 17.9375 29.7789 24.1587
1 23.0982 28.7125 9.0586
1 1.45161 11.4469 23.4231
1 7.38544 14.026 29.2706
1 7.12461 27.0429 0.931677
1 3.22851 0.242847 20.7558
1 22.4209 6.46055 25.0466
1 14.2195 16.8513 14.5088
1 15.382 6.92634 10.651
1 7.94538 19.329 0.167616
1 16.4307 10.8574 12.9983
1 8.31396 28.8484 13.1758
1 0.160266 7.14887 3.87691
1 16.4898 2.91572 9.23612
1 5.86996 13.6297 25.2587
1 23.4469 6.24771 12.2276
1 8.97187 1.50222 2.67048
1 29.6088 27.8738 3.50549
1 23.2722 7.45954 25.7573
1 20.0242 12.6898 8.52149
1 12.2912 24.2478 27.2031
1 10.1533 27.5387 11.7376
1 22.822 8.82644 17.196
1 29.165 18.7082 8.83041
1 5.00313 2.50285 25.2103
1 29.7484 17.1767 18.4274
1 29.4381 16.011 17.6291
1 27.6625 12.7519 13.2682
1 4.70715 20.3356 20.6389
1 22.5546 17.225 6.65743
1 15.7299 18.3209 7.46379
1 17.2934 23.782 16.7791
1 6.08745 10.9453 2.01363
1 16.5938 14.2586 27.2531
1 17.3252 7.28745 14.4465
1 12.9613 6.9423 13.3759
1 18.5988 24.7367 28.4895
1 21.2638 4.16127 1.27571
1 8.97529 6.14596 5.32702
1 12.8676 15.1078 26.2222
1 13.9227 28.5471 5.39552
1 26.6958 17.4513 3.7392
1 17.7778 0.874648 9.08023
1 15.7807 19.3058 2.7835
1 19.3183 3.64317 5.41804
1 17.3526 7.08989 27.7543
1 29.4239 7.46005 20.9532
1 29.5717 10.4493 2.32355
1 26.7603 22.853 26.7253
1 24.1418 27.3182 1.5866
1 3.49477 4.90705 9.39938
1 21.9074 7.33998 0.362394
1 8.61536 4.1353 3.80806
1 25.2322 9.96109 21.3587
1 27.4865 27.6252 8.02248
1 5.78218 15.3043 18.5487
1 12.7335 24.3971 4.91359
1 4.11617 23.3907 29.7742
1 30.0079 21.6368 10.3906
1 20.1241 25.8373 24.6316
1 26.5901 14.3817 16.9086
1 18.4867 22.9218 9.29586
1 28.8591 29.0607 12.8821
1 5.35456 23.3403 24.9774
1 30.413 3.64861 8.64287
1 11.6329 0.676279 28.393
1 11.6771 12.712 4.62224
1 11.6114 10.878 17.0457
1 23.3943 17.1101 24.1182
1 9.78258 5.08033 29.0845
1 19.6192 5.37835 22.5846
1 11.2995 11.0173 12.1737
1 27.623 29.0709 2.09118
1 22.3034 26.0993 16.8779
1 22.999 10.1786 28.4831
1 26.7552 15.2058 25.1973
1 9.66057 15.0118 6.74714
1 11.5396 29.4561 11.379
1 16.4045 6.67258 9.68821
1 27.8746 23.5896 4.39894
1 29.852 0.782687 25.2072
1 15.8105 1.12335 25.6852
1 22.3615 20.1315 15.557
1 29.5888 19.0261 11.1623
1 2.83301 3.69748 4.55443
1 19.7428 1.97646 21.8454
1 25.2515 3.84854 21.38
1 6.2457 3.58425 21.2983
1 28.8007 30.0417 1.12937
1 27.1446 25.5631 15.3511
1 3.84483 4.82065 16.5001
1 21.1662 10.2968 18.4684
1 4.10751 25.1446 19.9366
1 28.9594 1.35875 9.30971
1 12.6241 3.19364 7.55722
1 29.2941 15.3893 4.29756
1 23.7989 15.408 0.851792
1 19.4734 18.2357 2.66792
1 26.7274 8.71477 26.5507
1 21.9917 3.77411 6.11635
1 8.88284 13.3403 12.8847
1 8.38345 0.754739 9.91534
1 11.7691 24.8349 7.12376
1 8.60601 10.5369 0.250675
1 25.1994 8.7289 2.91257
1 9.61258 28.7212 29.3741
1 23.6914 13.3684 22.4006
1 28.5608 19.5755 13.9935
1 2.27187 19.9453 20.774
1 24.8205 19.0694 3.71531
1 24.4293 23.7567 2.09142
1 15.1427 9.1703 17.4209
1 22.9729 12.5555 21.6769
1 22.6375 16.288 23.0571
1 25.3086 9.602 10.9944
1 6.85694 14.6301 7.35329
1 16.0234 14.8513 4.53167
1 19.0779 16.6653 4.62902
1 24.1121 19.265 13.239
1 22.8051 20.1067 10.921
1 1.08738 21.3483 9.95165
1 11.1101 7.24831 11.5804
1 12.7994 0.543985 22.5707
1 16.437 12.23 25.2896
1 6.59546 24.424 19.5037
1 1.55818 0.402643 18.8632
1 20.3273 8.07469 13.1902
1 2.31275 3.46419 28.8107
1 2.49079 27.8187 5.87515
1 23.035 17.9157 16.3844
1 15.1064 9.99801 11.0075
1 23.1667 17.9397 19.9722
1 8.7815 15.5612 2.27006
1 4.05247 9.79733 17.153
1 26.2131 5.80238 16.9907
1 29.4233 21.3747 23.7662
1 16.8106 11.9228 22.4186
1 20.7423 14.0581 27.6736
1 5.38426 4.13458 2.18394
1 3.5033 14.1782 13.6916
1 6.2654 9.11247 20.2323
1 7.60817 4.06888 17.2133
1 8.54366 19.9011 22.4842
1 5.4102 21.8085 22.917
1 6.62611 2.93937 9.28143
1 29.5413 8.41124 11.0323
1 10.4333 26.3922 24.2041
1 3.21374 3.47879 22.0849
1 25.961 19.161 14.4012
1 1.44937 8.27929 10.8078
1 28.1623 6.14393 13.4086
1 2.31213 23.7624 25.9227
1 23.0015 0.847715 26.1023
1 10.2281 14.3085 0.333475
1 1.62508 5.9338 18.168
1 5.65229 18.0393 6.50834
1 9.91363 4.50194 0.223879
1 2.37241 1.32728 0.372968
1 7.39591 1.08008 27.7677
1 11.2101 15.758 21.733
1 27.0278 3.26494 28.093
1 13.1394 16.6526 25.5746
1 19.2955 8.0839 1.62815
1 15.5324 7.49989 4.75125
1 14.6666 29.5367 1.84945
1 28.9913 21.9866 27.97
1 1.21807 14.8854 29.2284
1 8.14688 23.8762 17.2375
1 15.7505 18.2196 29.9544
1 6.43036 3.1743 26.4134
1 6.60573 5.86898 4.09655
1 20.4736 23.0759 19.8837
1 18.0804 23.3443 19.8548
1 24.4411 25.6993 7.53572
1 8.46334 4.5348 27.0587
1 25.034 26.2943 10.6465
1 14.7178 18.2877 24.0327
1 29.4267 4.94817 24.7685
1 13.8365 10.8219 27.727
1 7.17637 28.6208 20.6679
1 3.1999 30.3587 7.8082
1 9.24287 28.2792 10.8969
1 18.7688 23.8731 0.958099
1 10.6396 14.2558 3.83734
1 14.8142 25.071 24.0437
1 28.5586 17.6897 24.2489
1 5.18108 21.9092 17.2933
1 23.6233 18.6384 11.8361
1 26.2298 16.0548 8.32666
1 11.9721 27.2202 29.978
1 12.7538 12.2446 3.65859
1 17.1017 6.60179 13.1215
1 7.6147 20.6442 20.3609
1 19.788 0.953703 11.0719
1 3.32362 17.7595 20.4023
1 14.0973 8.31754 15.4576
1 25.7879 19.5308 19.4207
1 4.83269 13.2814 17.8145
1 18.8418 1.33997 16.9453
1 15.7155 5.6711 2.121
1 16.4606 8.16056 0.534245
1 5.54397 19.42 29.8723
1 4.44005 14.6962 1.09887
1 14.0356 6.57752 24.1392
1 23.6799 9.16456 6.59387
1 8.29681 29.1231 25.3448
1 18.0856 9.94583 15.2808
1 6.9555 4.49035 1.91365
1 5.03039 9.16896 29.0419
1 0.213707 5.31678 13.1611
1 7.72996 25.6294 10.9002
1 12.7343 5.75773 4.96513
1 9.44716 18.5733 30.268
1 18.0828 3.1495 15.0832
1 30.0594 3.96874 30.3022
1 11.6427 13.7224 5.97387
1 19.593 19.6237 23.5996
1 16.0591 26.1794 6.10105
1 24.6488 5.86055 4.20142
1 19.2167 10.0547 3.31038
1 20.6267 17.5222 2.57774
1 24.7973 3.97361 1.94735
1 0.986428 20.4279 25.196
1 11.8236 15.4137 22.8097
1 24.591 10.7016 17.2851
1 11.3303 14.5254 27.9122
1 14.2892 1.96832 18.2938
1 20.8196 3.93638 24.4046
1 0.565815 15.7221 28.0614
1 22.4703 21.3576 11.787
1 11.9655 2.85149 21.3795
1 15.6742 9.81882 22.461
1 26.0203 20.0008 3.2335
1 27.4618 8.46542 27.6355
1 9.45987 12.2053 9.81013
1 6.93067 8.08102 15.7943
1 18.3746 23.0465 7.13439
1 25.4593 29.7556 10.2279
1 19.4962 20.7565 18.5013
1 25.7301 11.147 2.22937
1 3.56604 2.359 10.4834
1 4.02073 2.72563 17.8513
1 28.3858 1.42505 3.66894
1 6.10392 2.46944 18.9107
1 15.0567 15.1994 10.6729
1 23.3914 7.92796 28.5535
1 6.61632 1.41959 16.7362
1 29.4847 15.5631 28.3023
1 5.12072 1.38739 27.5628
1 5.88545 27.1762 16.2372
1 21.3754 21.821 10.786
1 5.06083 7.50416 5.16613
1 24.1012 4.04389 15.1918
1 16.6347 21.3832 13.6461
1 3.70988 12.2015 29.0492
1 7.07538 23.1657 20.1513
1 1.18633 28.9255 2.40455
1 12.3201 2.95449 22.8472
1 12.4076 24.1106 2.02917
1 6.64508 7.93618 10.5362
1 1.65023 13.8031 12.0161
1 15.7196 30.3744 28.5229
1 4.58846 23.1759 15.1126
1 28.6611 26.9228 10.5318
1 11.5147 9.49314 0.470484
1 8.95124 24.2502 20.442
1 22.8994 27.8393 27.0086
1 12.9178 7.74972 19.917
1 20.4519 15.344 15.2305
1 17.4382 27.7327 4.35734
1 19.6298 4.97613 5.18593
1 15.8347 24.9155 27.6231
1 6.59093 3.46944 15.2599
1 1.82162 19.7575 0.370311
1 21.6321 27.6721 1.33545
1 24.451 23.905 26.8425
1 6.26232 9.32124 4.81387
1 9.34818 15.9239 7.82039
1 20.4377 3.10628 22.2532
1 25.6632 13.5252 27.1313
1 9.15314 4.07937 8.13748
1 26.498 23.8734 19.1359
1 7.69191 22.9562 1.38573
1 18.3085 15.998 9.52805
1 15.8115 15.49 0.459923
1 7.991 11.0762 5.61776
1 22.7588 19.3288 22.6289
1 12.2109 8.27106 12.8954
1 5.15435 11.5111 5.30148
1 23.1873 26.3513 1.80222
1 24.1161 20.6271 13.9295
1 28.9644 23.1112 19.0203
1 15.4971 5.7349 15.4593
1 19.2913 6.3961 2.97024
1 15.5747 11.6836 29.764
1 16.2756 9.89357 7.44384
1 24.69 19.1794 26.6006
1 23.5516 23.4716 12.1531
1 10.4308 19.8049 12.7555
1 4.44285 3.11853 23.2884
1 12.856 15.0106 27.5976
1 18.9973 14.3729 3.76578
1 25.2915 19.9305 17.9416
1 4.51359 26.394 10.2248
1 22.3705 28.6408 24.6279
1 3.83926 19.7043 14.768
1 15.7404 11.0845 11.8158
1 28.6159 30.2079 5.69734
1 22.3472 6.43843 21.5558
1 0.173444 8.07536 1.97219
1 13.5015 7.95602 22.4585
1 21.999 23.1325 3.64705
1 8.79085 2.12448 11.8849
1 28.1946 14.7305 8.53566
1 24.5479 16.7349 2.73061
1 13.3435 25.2217 26.6234
1 0.587394 27.8809 16.9254
1 7.36598 1.96515 4.60687
1 29.835 24.7288 13.8355
1 13.224 29.9537 13.0559
1 6.21826 2.24876 1.35378
1 1.4623 18.4633 24.0417
1 13.5017 8.0534 1.70968
1 24.9255 0.938535 3.83717
1 24.9138 15.9413 30.3344
1 26.7036 28.7941 15.2101
1 26.0324 26.2571 21.0425
1 16.1095 20.0432 15.8347
1 17.7483 26.2441 25.1219
1 19.3754 23.2825 19.1171
1 28.4388 11.4883 2.4345
1 10.542 8.79997 16.4272
1 23.8168 10.8292 0.533859
1 4.96985 23.0118 23.6674
1 29.5303 8.1026 7.51252
1 13.8509 12.04 9.82747
1 10.5612 13.3814 21.4775
1 20.3016 8.90604 27.8413
1 18.2409 7.38915 17.3261
1 7.28016 5.86846 8.09545
1 24.6785 4.47812 28.7681
1 26.526 23.9918 21.9158
1 21.4109 4.24663 19.7662
1 16.052 24.0145 15.9646
1 24.1647 21.1047 4.92488
1 1.14451 15.3304 14.1516
1 9.87554 2.73817 28.0297
1 14.6988 6.27585 7.50816
1 7.40368 24.3127 22.471
1 13.3785 22.7725 25.4023
1 28.6256 7.29337 18.4555
1 20.608 0.50799 18.8951
1 27.5922 26.1048 23.9234
1 21.55 8.61125 13.6078
1 9.67509 4.29559 10.4692
1 8.94378 12.8246 27.4237
1 28.1289 4.51411 23.7318
1 22.6444 5.96653 5.32712
1 29.6086 16.9527 0.400038
1 7.80838 22.6104 12.5244
1 26.799 5.21899 18.0859
1 19.7373 24.2401 3.04174
1 13.3691 15.6881 7.6366
1 20.6717 17.5714 26.487
1 24.159 28.4711 0.704467
1 15.6257 15.7652 22.4561
1 1.46396 16.2226 10.963
1 29.2816 9.11195 6.63192
1 3.92391 13.2857 21.4194
1 23.2249 10.5247 2.77283
1 28.9201 6.18171 26.9286
1 5.98071 21.2106 14.3861
1 5.54642 28.2149 28.0936
1 23.5809 30.1995 28.0524
1 24.8284 16.9301 23.5905
1 28.6261 3.29971 10.6843
1 20.1154 18.7553 16.9027
1 21.3666 14.4506 30.3385
1 25.6131 10.8251 10.0454
1 21.1373 10.8994 29.9151
1 23.9947 18.6496 21.8516
1 4.13391 23.2809 16.4786
1 4.86036 16.9669 4.37333
1 25.5785 20.9178 5.44505
1 29.4514 23.4016 29.9853
1 28.4006 29.0145 16.7846
1 3.71156 4.42951 26.9654
1 1.64432 8.24027 29.0462
1 22.7074 19.2511 16.8437
1 22.4458 16.3419 18.4414
1 20.7388 28.6277 29.4554
1 3.61173 11.8888 16.0766
1 27.0362 10.5761 2.70619
1 30.3685 30.0401 3.77197
1 12.155 15.7085 2.63675
1 5.30978 20.7467 29.9255
1 2.38766 9.73935 8.17355
1 7.09986 15.4126 27.2662
1 23.8086 26.7717 5.61963
1 17.7434 6.91223 24.2197
1 5.47217 11.1856 19.0654
1 13.261 7.45259 8.55305
1 3.56638 20.0984 2.04338
1 10.776 15.221 9.62714
1 20.5619 16.3493 24.6605
1 25.416 23.6206 9.68118
1 23.8458 9.61305 17.9357
1 1.22404 28.8866 0.777335
1 22.4359 23.7293 28.9872
1 22.6294 25.8945 21.3945
1 17.3038 8.89445 14.5013
1 16.0448 4.66064 14.5955
1 27.0685 3.99825 19.9182
1 16.1625 24.9135 12.5401
1 24.9607 16.3325 8.1553
1 9.49881 22.859 25.2083
1 7.54802 16.2095 16.0798
1 21.6263 11.8958 0.836201
1 28.3315 24.6181 24.1
1 2.5918 11.6515 10.7666
1 4.8183 27.3932 30.2796
1 19.0002 8.57784 17.7503
1 26.0739 21.7569 6.82855
1 10.3589 2.99164 15.1194
1 6.28107 6.82427 15.058
1 20.9927 24.3603 22.629
1 12.3937 26.6225 26.0544
1 17.1149 17.8359 25.0427
1 25.7802 1.16632 2.38422
1 24.5988 13.2461 17.4212
1 4.69119 10.9439 12.6501
1 7.07782 21.0767 24.8032
1 1.57796 26.2517 17.8871
1 13.7973 19.0043 13.0706
1 14.6169 23.4461 13.6971
1 6.79583 15.3104 13.7868
1 16.1346 17.3695 12.1127
1 9.995 25.9073 2.98512
1 5.93331 1.60748 24.2821
1 13.9345 29.7818 17.3088
1 17.6284 4.00946 21.8049
1 30.2652 26.7315 0.922796
1 18.6284 18.8197 27.1642
1 21.9811 23.7476 16.2512
1 21.724 4.99524 5.82509
1 25.6006 30.1066 7.25009
1 6.49658 5.92539 21.9715
1 22.7103 21.9173 21.5436
1 23.3271 16.106 2.04224
1 19.8651 29.8639 21.309
1 18.4631 9.26647 18.9279
1 18.2275 15.6475 1.30696
1 8.91747 18.9247 25.1824
1 23.6335 30.0122 20.5912
1 12.0302 14.4488 11.5167
1 5.14925 21.3415 1.00465
1 13.597 17.7733 8.68631
1 2.43002 4.08525 7.16004
1 17.409 3.15123 27.8774
1 25.3711 15.6755 23.2905
1 1.84324 8.38337 25.0959
1 5.44035 29.834 1.53166
1 30.1207 20.6348 6.2769
1 12.837 26.261 20.8806
1 26.48 2.06535 17.6254
1 24.6171 6.19295 23.3993
1 22.9137 15.0789 20.7689
1 7.03913 11.6585 15.3759
1 12.5773 29.3247 15.3659
1 27.8596 27.9427 26.9896
1 14.3847 3.61207 11.8703
1 6.23205 13.4564 19.805
1 8.12787 23.2075 24.3416
1 6.85543 29.5793 1.09379
1 9.95699 4.665 9.23524
1 1.16702 16.5932 22.9284
1 19.2696 0.434636 27.5231
1 13.3872 7.47795 26.1527
1 2.48117 6.88131 0.902552
1 6.9739 25.3714 13.1933
1 2.28137 29.2229 9.90513
1 9.42853 12.1504 3.27138
1 28.4089 0.548824 19.1014
1 8.30935 24.5227 23.6421
1 6.84302 10.1922 11.5299
1 17.7315 24.1039 9.59576
1 7.5221 12.1959 22.1063
1 5.27045 18.3211 13.0959
1 3.15247 26.5006 7.4618
1 3.85477 11.2895 3.34646
1 13.6781 12.6653 0.49381
1 5.91966 15.974 29.7731
1 28.1105 3.84859 2.81702
1 5.88636 26.7444 0.486187
1 21.0533 21.5272 0.543094
1 7.42089 7.39931 23.8812
1 26.9162 5.6805 12.6937
1 22.4229 29.7211 19.7319
1 11.4426 11.7142 8.68711
1 20.6007 7.35946 29.9732
1 16.9446 18.2217 0.689848
1 19.2785 20.6342 9.91716
1 22.09 8.346 14.9278
1 27.3351 9.52059 23.6693
1 16.7345 28.8106 16.5204
1 7.32426 5.56059 16.7633
1 11.2912 27.3759 5.42547
1 4.80329 7.69777 18.5529
1 22.6902 8.64222 4.05981
1 3.65484 28.7465 3.41696
1 18.0467 3.37735 11.4602
1 21.9134 3.30236 15.9359
1 10.0283 12.6988 7.08798
1 2.97359 24.4337 23.4068
1 16.6517 11.26 7.5306
1 2.46531 13.3922 18.8534
1 6.14701 30.0491 9.24217
1 4.48592 21.3066 11.157
1 4.27389 8.42352 23.0929
1 29.8591 16.3801 14.5162
1 9.03575 25.2034 14.423
1 24.6509 5.86037 16.9869
1 8.07388 10.1212 17.168
1 15.9758 6.97983 26.6976
1 3.72059 5.33488 3.23054
1 9.38422 17.0093 1.57708
1 8.38679 21.6619 0.669761
1 9.49352 3.15362 4.40385
1 29.419 7.79726 30.0421
1 17.0748 0.77731 1.22757
1 10.697 26.4514 16.7671
1 6.81545 3.68908 13.1368
1 5.80428 8.95907 3.43293
1 4.98914 27.0239 1.95155
1 24.3367 7.0103 29.7785
1 12.5717 8.48388 25.9166
1 17.7767 17.7449 21.2478
1 13.4909 7.0887 14.4972
1 0.947527 26.96 27.5549
1 20.4219 14.777 8.50153
1 14.5157 16.3535 1.19534
1 28.2889 12.8613 17.8802
1 6.70969 24.8578 8.72902
1 16.2247 0.160352 7.57002
1 10.1823 23.1766 12.5508
1 1.48308 24.1485 19.5858
1 1.6563 20.1827 16.5005
1 2.2583 21.4805 15.8025
1 2.8249 9.63256 30.0102
1 0.367314 0.62753 29.6295
1 12.8321 15.1904 12.4092
1 19.5386 20.7937 27.7563
1 30.1942 29.2757 13.497
1 4.43167 15.935 12.5834
1 3.7186 11.0491 21.8333
1 25.247 24.9111 4.03367
1 11.4857 14.4599 8.48278
1 1.92632 20.0246 22.1912
1 10.0585 0.271775 2.8205
1 8.43353 2.42586 24.3379
1 9.44577 2.22613 14.1312
1 7.7877 16.8869 10.0258
1 4.01186 3.76041 13.0664
1 13.5437 20.5095 18.599
1 14.471 4.32623 22.7813
1 26.0891 13.5828 19.3301
1 1.94013 28.1446 14.5022
1 15.5136 27.8449 21.4053
1 9.30098 7.61934 29.2963
1 25.8908 3.47088 12.2284
1 20.2303 11.9988 24.5943
1 18.1561 26.8244 12.3429
1 19.9532 23.9301 12.3266
1 12.2478 29.8999 26.084
1 6.48595 4.40234 9.78128
1 16.2184 28.0885 29.137
1 16.9418 13.6913 1.08198
1 28.1432 26.8236 29.4536
1 29.8021 0.741138 26.6992
1 17.0668 27.3255 14.4643
1 17.0994 4.16645 15.3946
1 26.9466 7.83689 22.0147
1 13.0265 17.2753 16.7877
1 1.75328 0.890466 16.5843
1 28.305 24.7039 20.6798
1 12.2834 25.1803 5.89933
1 28.5526 0.267266 4.10257
1 20.3865 2.96495 3.51531
1 25.5762 12.116 4.77154
1 29.743 3.7823 25.5803
1 30.1808 5.92902 7.06159
1 28.3749 5.8047 0.242793
1 19.0769 2.97128 4.09032
1 7.19035 16.0936 6.71013
1 1.06177 10.601 9.47954
1 22.6832 0.668747 14.6859
1 8.23901 18.8624 23.1828
1 10.7978 7.3857 9.92736
1 18.4916 25.1842 21.8095
1 15.1333 15.0023 24.9465
1 7.44591 21.7055 14.5886
1 14.3959 13.908 29.6637
1 26.6509 16.1904 28.4723
1 29.6931 19.6003 16.0443
1 15.6731 11.3794 24.4657
1 18.7109 18.8552 28.6301
1 3.48797 9.50362 14.8428
1 9.63404 9.06884 24.9378
1 16.8253 30.1939 11.0977
1 29.4957 14.3413 11.7565
1 10.5394 6.74487 15.5344
1 22.7457 5.80625 2.45985
1 14.9433 8.6477 11.6814
1 26.1988 29.9714 21.3463
1 10.0332 8.37898 22.8265
1 10.0895 19.5492 2.23447
1 0.316461 20.8153 26.4672
1 0.589 24.2227 12.5087
1 20.0614 13.2913 23.868
1 29.3896 8.92678 20.7354
1 15.4796 21.2755 25.7019
1 7.95838 6.17791 23.7636
1 16.7016 29.3968 29.4531
1 10.1382 5.30779 5.99118
1 3.37279 25.7677 9.97859
1 26.4312 15.0189 2.91364
1 21.4419 9.44242 17.4548
1 9.67052 0.713752 18.06
1 2.66495 25.0246 4.72877
1 1.74426 9.96522 0.952161
1 5.10847 0.263008 8.04539
1 25.9533 2.21523 28.5235
1 3.49807 25.054 7.19167
1 24.0508 10.6615 27.7343
1 17.0044 19.4058 23.0103
1 5.97837 28.4568 3.4868
1 14.7748 5.68123 22.2259
1 13.4259 8.47381 4.95214
1 10.5268 8.35043 27.3757
1 9.11823 3.52932 24.886
1 22.7509 3.23379 2.88529
1 15.6808 12.6116 5.75537
1 12.9443 22.6869 22.8355
1 18.2165 19.6592 29.5697
1 8.77373 10.6016 4.50163
1 6.04092 4.28663 11.0762
1 29.5861 9.32965 26.3724
1 9.96911 21.8344 17.5116
1 15.809 21.9612 0.665435
1 15.1246 17.9902 8.77375
1 6.28681 13.1634 28.9545
1 10.76 4.51156 11.4994
1 3.48775 21.3918 25.7809
1 6.92959 4.6897 12.1034
1 30.1482 25.5535 21.0448
1 1.03651 22.8636 15.1639
1 28.6197 11.5185 15.0935
1 15.6152 8.2415 26.4454
1 12.2157 25.3509 1.59828
1 20.5267 28.5245 9.47885
1 17.2672 16.1414 0.346898
1 16.9751 12.2669 1.69477
1 4.37817 12.127 27.6315
1 9.78088 8.723 21.4461
1 29.2408 25.6532 11.4216
1 12.0413 18.8423 11.3102
1 12.8458 10.607 3.52672
1 6.52167 10.9728 4.74832
1 0.361855 18.5825 15.506
1 5.28841 11.6311 9.81343
1 27.0403 22.3637 12.7052
1 28.4231 19.38 20.2301
1 18.8688 13.8787 2.51592
1 22.2253 8.83029 6.29873
1 7.98432 28.2761 16.9404
1 28.0723 0.906715 25.3258
1 14.7605 16.3844 10.0086
1 18.2367 15.6509 4.05017
1 3.37771 1.95097 23.5574
1 16.6016 13.3503 3.70309
1 11.4579 2.65295 0.651344
1 1.39922 10.1729 5.97638
1 16.0081 14.6254 6.93471
1 23.9973 7.99219 3.96015
1 8.98106 27.6582 9.6312
1 15.2957 25.1224 10.206
1 14.6425 5.66402 17.506
1 19.5752 29.453 12.9136
1 7.53506 22.8976 13.9631
1 0.646628 12.9261 11.685
1 20.7966 0.269684 25.6513
1 17.7987 24.6667 10.8646
1 3.00201 16.0596 3.30635
1 26.04 28.9868 11.5096
1 27.6318 20.261 0.924239
1 6.45444 27.3843 6.49362
1 4.56247 28.9197 11.6406
1 10.2082 26.3494 22.7912
1 23.1441 8.59012 20.853
1 28.7767 14.1512 5.11375
1 7.00921 10.5986 7.42035
1 21.7077 14.214 4.99844
1 9.48388 5.97267 21.4751
1 11.3423 14.9361 25.4205
1 4.94959 11.8569 17.9737
1 18.0692 28.8565 10.3746
1 12.4752 10.2553 19.5147
1 16.096 6.2583 0.922571
1 15.519 4.71973 12.1941
1 16.2582 17.4388 28.8528
1 5.1698 9.63227 30.1963
1 7.40684 4.34454 6.10039
1 3.47609 23.1484 23.9404
1 19.0663 1.48603 13.7686
1 5.3253 15.9672 3.3333
1 21.6003 2.86693 1.28004
1 5.70954 20.7062 25.115
1 12.5252 0.292718 2.67378
1 13.9123 12.8876 25.5262
1 11.5711 13.7976 16.7924
1 2.50729 6.31229 7.95955
1 8.40149 25.3296 13.1244
1 13.6612 17.494 13.1509
1 25.5809 1.13329 21.144
1 11.7256 0.371291 7.382
1 9.57919 5.67172 23.0555
1 15.8073 17.5047 16.0038
1 10.4948 24.6422 28.4327
1 4.83537 8.85264 7.15404
1 5.75029 24.7027 25.0696
1 4.87359 22.5421 27.2596
1 9.22948 9.87241 19.6682
1 27.1566 7.32423 2.79355
1 19.6252 3.94905 13.047
1 14.9056 23.1459 16.3918
1 4.36633 24.197 21.2418
1 3.82817 21.4484 1.40543
1 6.43611 14.0416 14.5266
1 29.969 11.0603 9.81322
1 29.9929 24.2345 25.9408
1 0.762235 3.88721 26.2865
1 12.0593 28.719 23.8759
1 6.29324 25.7682 21.8244
1 17.8995 27.6157 9.79507
1 20.4133 5.19105 19.6199
1 20.6885 6.83453 21.8365
1 28.2506 8.91568 5.67433
1 17.4502 28.9534 6.32112
1 18.0185 4.57409 8.89587
1 14.9419 24.1601 12.2489
1 11.3955 27.9748 17.611
1 19.2308 13.1985 0.251837
1 28.1104 1.07157 22.2421
1 12.5512 18.7507 8.21136
1 11.0138 4.74187 26.882
1 11.2847 28.5268 13.8288
1 15.4774 12.3447 4.34226
1 25.599 2.59254 13.9218
1 15.8104 19.4782 6.80368
1 9.1623 9.2735 6.81081
1 8.61712 5.1659 19.2289
1 2.99747 1.11225 12.9477
1 26.1227 24.7335 0.323241
1 15.14 15.2293 16.3268
1 7.64885 12.6799 16.15
1 6.66451 13.8381 4.27287
1 21.0541 0.423761 4.47739
1 22.6095 27.076 10.2664
1 7.98562 19.8138 6.17419
1 7.23854 8.35539 24.8959
1 3.86403 21.2183 8.58094
1 25.108 9.23114 8.83038
1 11.5564 18.8641 25.802
1 10.7294 17.03 6.32185
1 16.867 13.134 13.3415
1 3.12546 6.70343 15.4778
1 19.8188 22.6846 28.8382
1 1.07987 26.1514 2.76799
1 23.9756 27.7477 12.1679
1 12.8357 7.84979 29.7793
1 0.907084 26.6393 16.4742
1 13.5621 27.516 13.0393
1 16.6347 0.595434 19.5221
1 3.86617 10.1637 26.5313
1 27.8667 20.8061 18.1637
1 18.8398 15.0718 28.7217
1 25.5152 28.7775 4.84685
1 6.42402 29.0464 21.8133
1 9.0894 22.442 12.1326
1 2.30641 12.2577 24.0707
1 27.3056 16.0739 18.6571
1 2.7739 12.0757 19.7308
1 12.1143 7.91721 18.9461
1 3.14085 11.0965 14.7604
1 13.8715 28.9531 19.5873
1 16.2325 25.3465 20.5268
1 28.7374 9.59229 19.5831
1 16.1216 6.00943 22.7529
1 5.81422 19.9934 15.7107
1 8.51915 13.6458 24.272
1 16.5647 5.18231 8.97863
1 24.211 23.9915 22.0935
1 29.5259 6.278 25.6587
1 26.0089 19.3867 16.9551
1 4.28465 21.6858 18.6186
1 11.5351 17.0368 3.04445
1 26.4983 19.2517 28.5934
1 30.2647 11.4811 16.5647
1 10.759 29.6871 25.9105
1 23.5783 1.02277 3.80818
1 17.4638 26.0798 29.158
1 25.4202 25.5864 6.50171
1 8.22198 27.5547 3.19979
1 17.8333 4.86598 1.88499
1 7.07132 21.2484 4.06503
1 13.4835 2.16851 5.6187
1 9.79622 8.64372 5.39171
1 30.0433 0.706128 11.5479
1 6.37826 13.0465 3.23385
1 12.2451 19.1337 15.7248
1 23.7219 17.306 28.5107
1 7.88735 20.4341 26.9864
1 19.974 9.90105 19.8576
1 0.288454 22.8887 22.487
1 20.9841 7.34582 15.3067
1 14.9337 16.6391 21.5956
1 4.4799 0.583057 5.27335
1 12.8089 4.30241 23.1182
1 10.3358 28.5042 18.5421
1 2.70415 29.0706 12.0266
1 21.2366 14.4351 19.2022
1 15.1206 5.07263 28.0304
1 30.2347 3.52124 7.42768
1 12.2637 6.58569 30.0366
1 7.58861 10.2211 15.8224
1 18.0647 28.9801 28.8032
1 0.737293 13.9607 25.6656
1 9.46486 0.942488 14.6402
1 7.83964 3.87918 14.1022
1 1.29004 2.79051 1.95386
1 27.9959 15.1758 3.04779
1 23.1156 25.201 23.7959
1 4.99985 2.85818 1.72917
1 20.8483 25.5276 17.0626
1 22.6975 13.5762 2.77985
1 11.1302 23.2985 21.5327
1 1.24575 11.4481 6.54742
1 10.9734 28.6482 6.4112
1 5.38537 4.75617 18.4149
1 29.3146 28.6988 8.86759
1 26.8875 7.9668 1.33642
1 7.60373 6.04404 11.9991
1 20.6518 6.38346 27.8916
1 18.3552 20.241 19.512
1 8.74531 9.2726 13.303
1 14.9092 23.7304 23.7266
1 12.4734 19.1048 4.36682
1 14.5334 10.6592 5.39201
1 5.72474 12.7059 30.191
1 0.649138 4.19356 15.2289
1 3.73361 27.005 0.794384
1 25.45 18.6865 13.2067
1 28.6558 5.2961 14.4822
1 24.873 14.4952 28.2279
1 4.43904 14.2328 8.31913
1 26.4594 18.0043 17.5892
1 7.89642 16.2601 30.137
1 24.2773 24.2912 17.5734
1 5.75149 18.0804 14.4586
1 2.61959 7.89657 1.9444
1 22.0178 7.22476 6.1208
1 2.21505 21.0777 19.8006
1 24.9324 16.4769 26.9012
1 28.6053 3.53543 16.4309
1 7.9895 24.4075 7.69447
1 26.1973 6.56566 20.0498
1 9.54849 17.9405 11.4053
1 7.22267 29.3856 13.7592
1 7.88041 26.7736 29.9678
1 3.47859 14.4017 25.7876
1 8.3521 1.06481 15.4751
1 9.56157 26.924 5.14037
1 6.29119 12.0532 19.98
1 28.073 3.41972 18.9157
1 1.16867 17.1491 24.2793
1 5.83682 16.2187 25.1321
1 30.2635 7.08021 0.950259
1 20.582 15.4441 20.3369
1 15.6725 6.20463 4.53217
1 12.1968 8.2174 24.4587
1 12.7962 21.6006 20.9033
1 11.1113 18.3197 28.1097
1 26.8934 26.7501 27.725
1 2.11353 30.3426 5.13371
1 25.7598 14.6096 24.4322
1 9.06152 20.6003 17.7107
1 19.9607 10.6586 7.32075
1 1.56865 27.3236 18.6339
1 6.11277 0.983366 28.372
1 10.8362 9.32515 29.7804
1 10.0993 22.6796 18.8036
1 0.584681 4.94257 16.3856
1 4.91168 18.846 15.2877
1 5.81947 15.5245 9.66601
1 29.1456 8.69669 27.6823
1 16.2704 3.76974 4.70533
1 0.509466 13.2418 22.2318
1 7.0788 26.522 26.4244
1 2.50254 8.84242 13.8793
1 5.49902 13.7806 1.18412
1 26.0756 3.80795 29.0154
1 30.4129 22.7946 12.1735
1 23.2896 13.3195 26.2357
1 16.4317 10.7631 20.6867
1 12.6074 25.0002 22.8837
1 22.351 16.4591 21.6233
1 10.6532 27.9619 14.8777
1 2.81656 17.1726 5.92156
1 4.79888 5.95148 7.44196
1 20.7088 2.78194 23.5728
1 0.435611 1.32416 22.6897
1 10.8156 0.923947 5.61496
1 11.3579 27.9492 0.637644
1 9.65484 20.7872 13.1486
1 28.331 28.5301 18.2238
1 16.2206 1.49034 5.77968
1 14.7814 6.33636 28.1021
1 17.1146 15.6095 21.9343
1 3.52471 14.5157 20.7733
1 4.67999 2.77023 12.4681
1 9.17832 22.3676 10.7022
1 17.4403 27.8806 15.6477
1 22.257 5.34729 22.5725
1 2.24648 0.530831 29.4725
1 29.0703 3.94278 5.41926
1 20.9784 15.8936 7.85212
1 21.8211 17.3829 19.598
1 29.6148 6.66027 13.0026
1 11.3939 21.1652 26.8686
1 0.211626 22.9028 3.66385
1 5.06323 8.93483 5.59479
1 10.439 1.28317 22.4908
1 6.11937 24.2355 29.3767
1 19.7171 12.9999 1.73138
1 15.5458 1.89274 23.3111
1 7.1672 13.5288 9.59289
1 8.84938 18.9467 9.93088
1 3.76377 27.7405 6.82155
1 2.48101 12.3069 6.27859
1 26.2121 22.4094 25.5291
1 25.2792 8.42874 23.0681
1 27.6196 23.095 22.219
1 11.9436 5.82607 18.1697
1 7.5211 13.4496 21.9929
1 6.83887 29.7378 30.0385
1 4.45038 22.8603 19.4097
1 9.72524 7.24103 20.8332
1 28.3335 3.45582 28.7528
1 9.97941 11.801 1.85385
1 13.5974 23.4278 1.52753
1 29.8579 20.0195 12.2302
1 22.7101 19.9648 14.2042
1 24.2049 8.62199 7.78261
1 9.82402 17.9922 14.3736
1 22.0375 18.1052 1.9439
1 9.99912 29.5128 8.92786
1 5.8375 26.53 17.4468
1 6.25108 23.79 10.773
1 4.50672 18.0421 21.2688
1 17.8666 20.2103 20.8406
1 25.9283 12.1479 10.3733
1 25.8905 10.0384 29.6288
1 19.8744 22.8505 16.7352
1 20.7536 13.3334 26.1969
1 27.0776 6.60734 29.0997
1 25.2279 21.4782 27.6851
1 10.8589 28.6434 12.5247
1 28.2186 9.89374 30.3687
1 16.287 20.7395 20.377
1 12.2313 25.193 9.61263
1 19.0975 22.9439 15.7164
1 1.86618 16.3436 18.0837
1 6.38446 15.2335 4.23744
1 5.72646 24.4022 1.19231
1 16.768 12.9157 27.1731
1 2.81312 19.923 17.5719
1 10.1559 11.8609 29.168
1 16.5024 18.8334 16.4161
1 24.9216 7.03537 26.0821
1 19.1391 9.96039 16.3241
1 6.29775 1.1121 18.2014
1 24.6713 25.1262 28.7483
1 23.2357 23.0078 1.2902
1 26.2765 20.9203 25.251
1 7.68274 1.42621 13.882
1 20.9148 21.8684 20.4389
1 11.0394 14.5023 20.789
1 30.321 1.62747 0.357884
1 13.6076 20.055 1.57769
1 0.361903 15.0119 21.0787
1 17.5448 29.9868 16.5312
1 13.6896 22.0223 2.24571
1 4.56797 25.224 25.1725
1 27.4756 29.8176 25.8389
1 18.7044 1.57687 4.469
1 20.1324 17.9622 29.8994
1 4.67889 18.9034 7.19181
1 21.1975 29.7629 26.9263
1 16.1015 6.91992 7.24679
1 15.6686 17.4885 25.1015
1 8.2852 11.186 3.39519
1 18.3526 12.3378 17.3269
1 24.3327 11.6833 19.1954
1 21.8403 12.4143 3.0709
1 6.08551 22.1042 27.8233
1 22.1501 2.96323 12.3914
1 26.9612 20.3355 26.483
1 8.36638 23.1815 2.72767
1 15.6875 1.9061 17.6413
1 6.68769 17.3749 19.2688
1 17.4222 1.5471 15.4484
1 19.2634 27.0441 10.3366
1 3.98408 3.25263 16.6207
1 21.9864 20.8622 13.2951
1 11.0806 26.6271 15.5483
1 10.3129 10.9554 23.0567
1 9.41137 10.2849 1.26731
1 7.84473 5.93124 28.1417
1 20.4371 28.7139 11.9926
1 7.19182 28.2407 5.5817
1 3.04309 3.27848 14.2921
1 22.0563 5.42945 25.7558
1 27.0696 20.0739 11.8509
1 2.38938 7.74834 7.05919
1 5.57442 6.17653 27.756
1 17.3411 15.5462 13.4059
1 14.9937 12.4274 26.6066
1 4.41189 26.6521 23.9361
1 18.1115 20.9914 29.3871
1 15.2883 3.71919 7.32697
1 20.6133 8.25016 8.45494
1 11.9813 13.2357 11.753
1 3.8845 11.0999 4.75428
1 20.0354 23.25 27.335
1 28.524 1.41009 6.26089
1 16.4103 17.4885 20.7303
1 25.4469 27.5594 5.97355
1 0.170287 20.3242 17.1167
1 5.53387 4.48151 4.83499
1 6.11631 23.1687 1.00199
1 26.0024 2.09497 23.4689
1 1.11677 25.4351 27.8309
1 30.0987 9.72123 21.6124
1 23.6511 24.5875 30.0944
1 9.5298 12.4371 5.6109
1 4.8716 30.0184 24.7045
1 10.3731 5.1244 2.48201
1 4.04056 19.2555 17.4321
1 27.3632 23.855 1.66164
1 3.1029 29.4076 15.7027
1 10.9617 18.2085 19.1151
1 0.517047 15.5625 26.348
1 21.2267 23.5785 2.57446
1 2.29277 6.87677 4.71446
1 1.92667 27.3623 28.5718
1 6.54014 16.1882 19.4969
1 24.9107 21.2688 10.7811
1 9.28056 26.0003 18.0161
1 26.8127 8.0821 28.9283
1 4.10441 1.40104 15.3322
1 29.5165 18.9719 29.5763
1 15.7137 26.6024 0.837141
1 11.6307 21.4577 13.9987
1 12.315 13.3074 17.9063
1 10.0669 20.3628 7.50469
1 23.2241 19.6427 26.4895
1 25.0424 9.88264 22.7743
1 9.78373 24.0869 21.8141
1 27.6531 21.8413 7.12237
1 17.3041 13.735 23.6198
1 24.1244 2.47532 16.7988
1 18.2481 22.2185 5.75182
1 0.792579 10.1617 27.9663
1 10.6911 7.87515 8.62525
1 6.34376 16.1789 26.4549
1 17.8331 20.6309 12.841
1 29.6283 2.08124 27.2671
1 5.28625 28.2444 12.5991
1 11.0957 13.0951 15.7654
1 13.5252 18.6223 1.32075
1 6.31526 16.9088 9.91365
1 19.5739 12.7398 15.2804
1 3.97362 16.1854 7.18781
1 15.8866 13.6048 12.3425
1 10.1739 27.3793 8.92023
1 25.088 6.55983 2.02725
1 29.94 16.8702 20.0662
1 21.2243 20.0475 3.89887
1 27.2714 12.4555 28.939
1 23.5312 16.4222 26.6972
1 4.37074 27.7416 21.758
1 15.8293 27.659 11.4372
1 19.5679 25.2902 5.4447
1 19.1659 13.8919 21.6446
1 12.9838 23.8705 20.6122
1 11.067 23.799 11.9365
1 11.7328 25.8425 24.7397
1 23.2662 16.7062 14.3325
1 12.5983 17.7818 21.116
1 28.36 20.5109 12.9523
1 21.1147 11.8888 9.46841
1 22.6272 20.7517 25.6707
1 1.03323 27.3603 12.4066
1 16.411 6.91814 15.7674
1 17.7529 7.69275 30.2093
1 21.2855 22.9979 0.371368
1 24.3237 0.798491 20.1428
1 28.3481 23.3521 9.18803
1 18.0744 8.34476 10.4914
1 11.8198 15.1155 16.4462
1 4.69403 15.6231 29.0163
1 7.01248 21.3459 5.56732
1 4.66283 5.83708 13.3673
1 25.6232 11.338 12.7161
1 27.3566 19.9859 16.7954
1 7.52248 2.29781 7.3675
1 12.5671 2.04983 14.2865
1 18.6952 23.172 4.60261
1 27.0973 27.9758 16.1966
1 21.1604 10.8827 15.4821
1 2.34037 5.40512 6.53806
1 8.05436 3.88084 2.47222
1 17.9145 8.0496 4.21664
1 25.0536 29.0907 2.08122
1 28.8953 6.43584 9.07374
1 29.7821 29.8611 19.8472
1 11.6711 0.987138 19.3591
1 1.93305 18.7035 3.76863
1 9.63477 23.0183 26.4747
1 27.7593 27.8827 13.0358
1 29.2638 13.5831 18.8073
1 21.4725 24.56 6.5023
1 21.8148 1.78014 25.4368
1 22.9966 27.2767 21.2075
1 4.28061 19.5826 4.60093
1 13.3613 6.41185 20.2102
1 11.7139 21.0147 29.3208
1 10.5788 2.89397 19.032
1 8.13661 30.3505 19.5378
1 22.6929 7.37001 27.0813
1 7.28737 19.5257 16.3723
1 26.7702 20.0808 21.876
1 8.04429 11.6379 23.2941
1 2.48522 16.028 7.15882
1 19.1438 1.64131 1.70204
1 14.983 1.42488 12.7443