4096
Atoms. Timestep: 240
1 6.76237 8.39359 11.307
1 27.8066 13.2187 24.6394
1 2.58308 28.5098 16.8715
1 6.70301 1.98181 1.52175
1 26.3449 15.0628 2.78785
1 8.25804 21.4948 7.36632
1 15.0578 6.14472 10.2478
1 26.4729 21.2918 1.71921
1 24.006 25.2611 23.7279
1 25.8753 7.35118 15.3444
1 2.79927 10.7712 24.1888
1 10.3567 12.7041 29.9426
1 9.93488 28.6836 25.4788
1 6.83808 4.31174 19.2149
1 18.5369 12.485 22.3078
1 8.84822 14.7403 12.5289
1 20.6036 4.00708 9.67832
1 8.20517 10.9413 3.53105
1 14.4116 14.6432 12.1538
1 11.3896 28.8442 10.8909
1 1.78207 6.95663 4.63052
1 11.5139 3.28897 10.7222
1 6.9474 13.4291 22.4508
1 27.524 9.1678 5.68079
1 4.52449 1.71961 29.5062
1 29.9095 29.9521 3.61976
1 19.7243 4.14952 27.2548
1 22.0776 5.02765 4.07622
1 15.764 22.8275 29.1429
1 3.90672 1.19612 16.7601
1 24.349 10.5528 19.6047
1 2.28039 20.823 10.4013
1 3.56185 0.537905 25.6221
1 29.5335 16.8787 19.0164
1 23.2286 10.5327 16.6799
1 2.64167 13.8226 15.6318
1 4.14015 23.0346 20.4166
1 23.0917 13.5299 3.71302
1 8.32363 20.6063 6.3483
1 15.8048 25.6629 16.6724
1 27.1742 8.42151 4.77368
1 16.2392 3.72719 26.0782
1 19.8326 11.3414 11.7944
1 17.2271 9.74807 10.0586
1 20.8722 26.1459 1.99893
1 28.0839 1.37524 25.5379
1 9.63406 3.841 3.82245
1 10.5487 14.2125 21.2169
1 6.02777 29.4534 9.92941
1 19.4867 12.5832 4.16728
1 18.5011 6.12403 10.4918
1 20.4914 17.6168 28.5383
1 23.1531 29.8131 5.62234
1 20.6881 7.32159 15.4675
1 30.0664 6.88592 18.8984
1 1.15402 10.8147 2.07314
1 28.5563 25.3388 26.8609
1 24.7334 29.1462 29.5281
1 3.64042 4.01998 12.075
1 17.8042 5.59103 27.507
1 15.5968 1.97507 7.7567
1 26.6947 12.0498 18.9791
1 26.7009 25.063 5.78466
1 6.60503 15.4145 18.0107
1 13.1881 20.4513 27.7856
1 30.1919 18.5851 25.4211
1 1.05464 25.6284 4.92038
1 24.3227 30.4825 30.1669
1 25.9709 16.3971 15.9054
1 12.432 21.925 8.91098
1 24.041 25.4468 10.6218
1 28.9143 23.6004 21.8872
1 28.4153 4.59296 6.82829
1 18.4589 28.3447 28.3161
1 11.9782 7.43537 6.73085
1 14.3803 11.3305 15.3297
1 25.1265 12.2307 24.3497
1 19.4588 29.0699 27.7369
1 17.4556 2.90051 14.2084
1 11.9116 14.2624 9.34222
1 29.4797 27.9289 8.51437
1 0.838102 20.9593 12.9242
1 17.1809 5.47337 28.9583
1 28.1245 13.8022 29.9809
1 9.36615 17.7167 6.70488
1 10.5698 30.3377 13.4115
1 17.3584 7.6595 5.88159
1 23.3311 23.8862 2.39773
1 22.7851 29.5263 21.4615
1 16.8478 4.48091 19.4233
1 15.4973 18.4042 17.0739
1 29.7053 16.3634 13.3542
1 2.34066 1.22289 5.72527
1 21.333 29.4897 22.1783
1 22.9086 1.28116 22.965
1 8.3565 4.80623 17.3703
1 22.3938 24.8946 0.725835
1 26.2126 27.553 12.8023
1 11.4989 30.1322 10.1444
1 25.987 13.7148 20.707
1 4.65244 25.1526 17.7735
1 29.6863 23.1854 7.46209
1 8.28726 6.42058 4.31518
1 28.6806 18.7933 6.69168
1 22.7927 13.3973 1.55795
1 20.9944 15.4709 2.30069
1 28.2688 11.9062 26.4951
1 26.4596 3.74941 4.38117
1 10.3796 17.4932 9.473
1 4.47646 5.71096 10.2938
1 10.1315 24.8108 8.33561
1 13.3634 14.9855 27.0772
1 25.5481 6.50616 29.9268
1 5.69103 0.185126 24.3863
1 20.8513 15.3994 25.1885
1 28.4054 21.8716 18.2195
1 1.83309 24.3056 17.5159
1 23.3099 13.047 5.97985
1 22.0118 23.2356 2.97201
1 13.3603 6.66004 17.1195
1 20.5817 7.33836 29.2689
1 22.3322 9.50531 25.4551
1 3.93159 7.14856 13.3477
1 7.60475 15.1064 7.08663
1 14.4052 7.50472 1.10669
1 19.1522 6.4352 27.7519
1 20.1214 19.584 13.7362
1 22.3882 20.0044 12.3471
1 3.87234 23.4862 10.4295
1 10.3591 7.1006 9.1268
1 11.8763 27.2633 23.7438
1 19.7118 14.3504 27.7783
1 9.644 29.3369 21.2672
1 2.367 1.91538 14.2563
1 16.4997 11.078 12.3673
1 3.13671 6.47671 30.4991
1 6.70459 24.0015 12.5033
1 21.3427 17.0585 14.2449
1 13.6572 10.5447 10.0548
1 23.1338 17.0471 28.8377
1 6.05718 18.5735 0.492632
1 5.02446 9.53115 16.4812
1 30.3706 2.37931 9.75649
1 1.86458 23.3479 21.2057
1 13.2435 10.6485 20.5312
1 19.6786 17.5936 25.3074
1 5.56322 3.81663 3.83267
1 1.14459 12.1103 13.564
1 7.84839 8.9425 18.9372
1 13.253 1.47761 16.4678
1 19.742 18.3777 16.0789
1 3.98669 25.5132 19.9514
1 5.23323 1.7067 12.4809
1 25.939 11.2824 10.8936
1 12.7761 19.6849 24.886
1 10.0812 6.10741 24.3647
1 1.3736 21.4637 16.44
1 0.722397 10.1193 6.93339
1 2.67567 6.11831 8.06624
1 7.14573 20.5833 25.7501
1 23.1898 4.69436 28.5343
1 10.0481 13.6499 28.5991
1 2.36455 5.19295 20.4112
1 4.24602 18.8807 7.90371
1 9.64079 3.14706 0.863744
1 4.88771 3.43541 2.40329
1 8.75057 2.84322 25.2514
1 12.8195 13.8792 22.2251
1 24.2721 4.66213 19.5969
1 16.1229 17.1392 25.3854
1 13.2725 9.75858 5.2728
1 6.12785 6.05606 8.48822
1 14.4707 27.5167 27.6292
1 28.9239 26.4372 25.7677
1 26.9324 14.6164 4.71911
1 7.22924 22.9305 15.2016
1 15.2549 18.3446 28.3693
1 8.70129 9.33265 27.5303
1 4.97782 3.66453 8.06459
1 17.5437 0.994814 21.0115
1 15.8422 22.9525 26.0306
1 20.6687 23.6197 7.89511
1 11.8229 5.99856 24.4575
1 25.8068 29.1079 14.8055
1 16.1286 18.3834 21.7012
1 27.5435 7.91271 29.6826
1 12.4354 14.2393 28.085
1 8.24098 2.39048 22.5492
1 27.3086 25.3609 9.1274
1 10.6431 28.6675 18.3327
1 17.983 23.9753 28.2442
1 6.971 8.29229 9.14294
1 17.1386 28.5432 23.2732
1 25.295 14.9387 25.2038
1 5.95232 19.3235 12.0864
1 20.2417 25.8503 15.6485
1 20.6491 20.1241 7.66488
1 12.8527 28.072 25.7178
1 13.0617 13.5995 0.273115
1 14.2018 10.5185 4.18721
1 11.9297 23.659 19.0802
1 16.0038 3.09381 14.5784
1 26.7617 17.7799 18.2006
1 13.5188 6.27985 15.6338
1 24.5014 21.8845 25.1281
1 6.01455 13.0774 17.1098
1 19.0872 6.66008 13.294
1 10.3754 27.0844 7.98947
1 18.5695 13.1576 3.16536
1 3.69406 14.3307 3.03998
1 3.18845 15.2609 27.5925
1 17.6155 0.742728 23.4815
1 18.6763 16.66 9.97016
1 9.57762 29.9061 22.7197
1 17.5577 14.3214 8.874
1 8.5662 29.8249 5.21521
1 8.9439 7.8519 27.9778
1 23.3799 5.13458 17.472
1 6.66517 25.0417 21.0669
1 10.997 4.90651 13.9053
1 4.35237 15.4895 3.04347
1 21.6967 4.09316 10.4728
1 0.0988304 5.72048 2.57983
1 6.53058 20.9361 0.881444
1 16.5584 21.6628 20.408
1 19.4558 21.9583 11.1111
1 25.4432 4.0887 28.7588
1 17.7808 8.76296 2.73628
1 23.4283 19.9152 2.29439
1 21.8265 2.89746 0.889718
1 5.89975 13.8467 25.2005
1 11.4798 16.0067 22.4894
1 27.2184 11.144 11.6681
1 10.5063 10.3149 28.6259
1 11.7794 1.39035 17.7249
1 20.6538 3.62045 24.0019
1 27.5539 8.60065 2.079
1 21.8554 25.6415 10.2178
1 12.3591 29.3991 25.626
1 10.2018 11.5629 21.6128
1 21.5644 11.6116 3.34409
1 27.3363 10.9542 2.17546
1 8.74047 10.5537 5.69941
1 8.21757 7.034 14.9122
1 15.5451 26.4272 14.1921
1 25.2449 27.2737 5.75891
1 20.5005 20.6977 20.0845
1 29.0329 9.9533 29.2452
1 8.95875 4.66662 7.08024
1 8.98527 3.88947 9.19651
1 25.6013 4.31716 30.065
1 8.88053 4.6435 20.8532
1 13.3741 21.5749 8.15737
1 16.3232 9.33417 27.2422
1 6.67568 0.524713 14.7261
1 28.8975 15.7042 28.1113
1 2.58787 30.0892 0.508083
1 8.43297 2.40238 18.4056
1 17.5377 23.2153 11.7979
1 10.5151 7.72249 28.3035
1 25.338 5.55854 12.1731
1 17.1978 19.1588 8.47349
1 2.52515 6.83783 29.1569
1 5.95689 22.7658 18.7704
1 1.72765 3.6644 4.93999
1 5.69304 4.42153 21.2945
1 9.09894 24.6103 28.0815
1 6.14237 9.15816 10.2663
1 23.9621 11.4621 14.7313
1 18.5911 27.2161 0.409684
1 2.9306 25.2559 13.4612
1 0.254395 26.5484 9.05049
1 7.43069 11.7946 0.685669
1 4.74416 24.7914 25.0373
1 27.2798 29.0975 29.3355
1 14.0042 9.24248 17.5705
1 22.5351 9.66231 17.5869
1 18.6153 0.449204 6.98084
1 17.999 8.97999 5.66485
1 15.5645 24.1118 26.8187
1 6.17891 2.85059 12.2847
1 2.45764 21.0448 29.3407
1 26.9422 23.4167 29.2998
1 28.125 27.3224 22.0678
1 0.438243 8.01901 4.44118
1 17.408 13.8185 5.16028
1 22.4284 1.29903 24.298
1 24.1381 14.5599 28.5309
1 7.40324 9.06723 7.9447
1 26.806 23.065 23.2514
1 4.78833 21.9418 28.043
1 15.8426 15.9045 8.87845
1 11.0039 12.2869 5.09837
1 9.50412 5.24258 25.2698
1 28.0819 13.7014 23.2588
1 18.4571 10.1443 6.79842
1 30.3261 14.0379 9.46369
1 25.2871 27.8605 1.71651
1 21.2186 22.8829 13.3912
1 1.82371 20.4434 20.6003
1 15.9652 7.53743 15.813
1 24.0337 3.08326 4.9215
1 20.0268 10.518 28.9112
1 16.0186 8.53441 7.79343
1 25.3164 19.3432 0.811453
1 22.9965 3.71464 10.1004
1 8.39671 22.8974 14.6065
1 28.5283 2.78628 27.295
1 13.7563 17.2493 30.4929
1 18.1504 14.3071 0.972232
1 24.068 13.8592 19.0683
1 9.80739 28.8182 9.43927
1 27.2157 26.0552 0.0191464
1 29.7565 22.8162 12.9916
1 13.1717 5.95924 13.2794
1 3.18666 3.27857 2.78656
1 21.7258 0.714936 16.9485
1 29.4048 4.48971 30.1675
1 10.7144 3.71875 22.5778
1 23.2408 20.9617 5.2126
1 8.39748 28.8995 7.67549
1 1.14153 14.1179 10.281
1 16.862 17.6908 6.18359
1 9.5384 21.1309 23.5282
1 5.77017 29.2588 20.8354
1 11.511 30.22 6.12462
1 1.73186 24.0469 9.74838
1 18.7146 1.28957 9.6851
1 5.85753 29.9771 7.20629
1 5.03303 18.2057 24.2179
1 10.0718 6.32424 6.0146
1 25.2225 0.437591 4.34398
1 28.5876 15.8174 2.31937
1 1.19195 28.4984 14.5898
1 28.1866 25.713 22.3451
1 13.7001 19.0155 13.9419
1 17.9133 29.7157 0.410047
1 18.2381 24.4767 19.3851
1 28.5435 12.8126 1.05372
1 11.7514 12.0081 15.7661
1 25.107 6.73965 3.07624
1 1.63086 19.0473 20.7553
1 28.5772 13.6924 7.23854
1 14.6313 17.0446 5.55766
1 12.4246 15.1523 23.1519
1 18.8925 9.58776 26.9499
1 18.4741 6.44541 15.4185
1 2.87695 5.01416 7.16455
1 26.373 28.0395 0.917094
1 26.8005 20.8616 26.5632
1 18.9893 7.69827 18.7844
1 14.068 24.2685 21.5606
1 24.5954 16.0645 6.90783
1 8.1897 12.6011 13.3338
1 6.93724 4.19896 23.2587
1 10.05 8.3499 8.57212
1 7.44927 25.3939 28.8845
1 8.50167 22.1851 25.1797
1 2.25002 3.10419 23.2145
1 21.8985 27.7703 14.4937
1 23.4265 25.8289 20.0418
1 23.2838 10.8019 10.1852
1 8.84988 29.8809 9.64745
1 10.0301 12.6521 26.3371
1 23.0769 2.13275 25.7028
1 28.6525 7.04657 29.277
1 7.03513 20.5371 3.30316
1 7.32874 20.5985 11.0322
1 24.9907 7.02199 22.1888
1 19.0149 24.5615 1.90984
1 10.1441 22.2531 5.95828
1 25.2888 15.4781 23.801
1 27.1927 2.22293 1.11489
1 12.4981 15.478 25.7517
1 4.88772 17.5686 12.5913
1 27.5244 14.8611 8.76519
1 5.06213 12.2176 20.2715
1 22.3382 11.7446 1.52049
1 5.73211 5.6008 9.88472
1 9.22269 20.4474 15.9558
1 2.69077 21.0692 24.7675
1 14.5327 28.1338 30.2018
1 0.599627 14.9236 18.5189
1 1.59875 1.03321 4.28632
1 17.7283 19.1694 14.6513
1 26.0585 16.2007 7.13053
1 25.6162 6.23172 14.4078
1 11.7523 14.778 2.26592
1 22.4678 15.3639 25.2295
1 2.95959 21.4385 13.3945
1 0.789304 28.5783 6.45593
1 1.12118 18.6444 11.7163
1 29.4849 25.6208 29.6512
1 2.29378 4.7149 14.3697
1 7.95797 7.63474 29.1266
1 26.571 11.8958 26.2937
1 29.9493 19.7276 16.7634
1 18.0831 13.7046 16.2548
1 18.1355 3.34948 8.10499
1 3.49328 13.4879 13.032
1 26.0096 13.0501 26.8059
1 29.9924 0.197792 28.5709
1 6.47508 15.6672 26.2709
1 2.84603 22.2573 5.57936
1 28.4701 15.3988 7.63667
1 3.22076 12.8218 26.9054
1 18.5556 18.5811 3.2538
1 16.0797 4.21594 20.6504
1 6.8714 11.2708 17.8297
1 12.1779 9.28541 3.071
1 6.05239 21.8065 28.6784
1 8.01834 16.72 8.97214
1 21.2596 13.079 24.1097
1 25.4319 23.1251 13.7062
1 27.9561 10.7886 12.9956
1 29.4414 3.73707 2.23832
1 19.9215 21.055 24.1931
1 22.9886 23.0558 16.5218
1 18.2296 8.15787 11.5649
1 16.3417 3.93185 15.7223
1 26.3933 2.77542 21.3994
1 17.4087 0.230174 18.4441
1 14.5739 12.1841 12.2869
1 14.6882 29.2991 24.6333
1 7.18422 17.7832 18.0808
1 16.9878 11.8524 3.85646
1 30.2212 27.6105 20.9186
1 1.56389 19.3769 5.09323
1 10.3532 27.2748 27.1695
1 13.914 9.55309 12.0288
1 17.0854 21.9178 11.1234
1 12.564 0.731936 15.4109
1 7.345 6.32466 12.8222
1 19.26 24.4496 22.411
1 21.0742 21.4113 28.1595
1 18.5097 19.1974 26.9293
1 22.571 27.3713 5.06716
1 29.8446 13.8693 16.3108
1 7.47473 10.4139 8.57651
1 1.12001 22.5874 22.0207
1 2.82853 29.5346 19.1968
1 12.6121 15.9616 11.3405
1 16.0597 22.9513 17.585
1 6.33316 15.5648 19.9507
1 15.1371 19.9369 7.51653
1 6.17597 18.1682 5.38308
1 4.893 29.5829 22.2985
1 8.87395 0.951678 18.8061
1 23.7417 2.78841 15.1006
1 28.2833 28.7496 27.1512
1 19.8022 19.4348 27.6232
1 19.3736 22.3212 19.6327
1 21.1952 8.81437 6.18614
1 25.0716 24.7735 6.47045
1 4.75738 5.83414 23.4317
1 20.7562 22.4217 18.2899
1 20.9771 11.509 29.4542
1 19.965 28.6765 26.0862
1 11.0308 3.82226 19.4668
1 15.4613 5.95245 2.91365
1 30.0746 16.097 24.0576
1 22.2502 30.0762 13.0859
1 4.86042 18.1135 4.13749
1 1.38108 17.7429 29.5603
1 8.57745 12.5062 8.02588
1 29.5332 6.57595 6.17466
1 21.1109 4.27489 1.988
1 17.9756 12.7485 17.6947
1 25.5324 9.36062 24.8545
1 1.8631 22.9456 1.50671
1 26.1138 21 4.08813
1 9.77202 25.0535 24.4301
1 25.4539 1.20281 15.5268
1 26.9782 9.26212 26.7717
1 22.3834 11.4579 19.5622
1 8.56084 11.3627 15.3421
1 10.8185 5.82572 8.38972
1 25.7461 25.2916 30.2294
1 19.117 13.5807 6.96443
1 7.81043 13.3823 18.8038
1 10.3636 26.9298 20.4356
1 10.5604 29.7699 28.2127
1 6.54542 4.41367 10.4488
1 3.50634 15.9265 21.5481
1 18.3313 4.35093 26.8331
1 10.4519 7.44163 3.5561
1 8.30718 5.53327 25.9891
1 10.769 25.9752 11.2935
1 0.486273 0.402874 12.795
1 10.159 9.65594 0.740696
1 2.52729 2.69457 18.0134
1 13.0189 0.718683 24.2451
1 0.376027 12.4943 6.66388
1 21.9053 27.4647 11.8246
1 9.37814 12.0923 20.7604
1 2.47383 21.1636 17.0331
1 7.15369 27.2126 10.9331
1 4.06065 8.63301 7.0217
1 3.32559 14.0805 1.76207
1 9.97566 19.8899 29.3602
1 29.0833 6.05157 0.243942
1 7.50058 24.0119 29.1898
1 24.4592 21.382 26.4106
1 6.32648 3.35234 25.5904
1 0.527623 6.55668 13.929
1 23.8219 4.92928 23.2842
1 18.6942 20.4159 9.95246
1 13.4865 4.14224 22.3774
1 15.5088 19.2016 29.5138
1 12.5658 25.0237 18.0184
1 23.5228 8.79207 18.1378
1 28.8785 10.5237 26.116
1 19.6492 1.28321 18.1493
1 5.97804 5.79234 15.9652
1 12.9304 29.0565 3.53361
1 5.79915 7.48127 17.9314
1 24.4799 10.2591 7.43237
1 1.29789 26.7281 3.79106
1 18.8238 11.7026 9.87877
1 20.6122 5.76933 14.8513
1 5.91215 7.69792 1.78591
1 5.74302 22.6668 25.0228
1 19.5984 15.3716 5.27832
1 3.51722 12.1746 18.2882
1 5.83526 29.5661 4.60412
1 5.60263 21.6551 12.6569
1 5.33569 7.74254 22.6786
1 23.6608 16.568 14.7607
1 5.63795 1.349 14.4079
1 26.9559 4.0877 18.9454
1 9.28957 10.0597 17.0777
1 14.1893 13.6159 29.6474
1 10.4999 6.71885 0.767763
1 3.32631 21.936 29.9094
1 8.1458 21.4257 0.718353
1 11.0975 5.12314 1.14703
1 1.23057 7.79368 7.79557
1 15.1362 3.70271 5.28305
1 15.0873 27.468 22.8432
1 5.50223 7.36117 8.23859
1 4.42748 3.6621 27.6165
1 10.4311 23.6442 1.28573
1 22.4181 6.61655 30.1723
1 13.3607 3.48502 21.1183
1 20.9937 14.9644 21.9582
1 10.8573 3.40948 14.1111
1 0.508597 28.7013 1.22929
1 18.3953 16.1033 8.77491
1 12.3099 7.45487 5.25149
1 26.6493 15.9175 18.6102
1 10.661 22.7004 12.9982
1 15.261 23.0743 6.85474
1 8.79743 18.5789 10.3678
1 3.85923 21.507 20.0819
1 1.50599 18.3537 15.7341
1 3.68612 28.7644 15.8571
1 2.88283 12.0742 30.1052
1 28.585 0.666781 28.3277
1 9.68887 14.9446 8.83549
1 20.3285 16.4726 26.1154
1 30.3271 28.8803 17.1721
1 4.62922 15.9726 12.5963
1 4.6159 10.0808 21.3414
1 23.0252 20.9432 1.65069
1 11.6247 8.87242 11.8249
1 5.94865 19.2143 22.3088
1 15.7227 29.9008 2.38544
1 9.4421 1.54506 25.4024
1 6.58256 28.6702 11.0452
1 5.32781 15.4883 4.03991
1 1.48372 5.45503 12.2333
1 12.1302 23.9524 15.9104
1 9.32565 26.6849 22.4668
1 26.3457 16.3866 20.8291
1 2.52051 26.3289 9.83124
1 18.1663 29.0485 20.4396
1 10.0641 0.797401 26.2934
1 19.4191 7.78438 12.231
1 18.899 12.8239 28.5048
1 21.5401 2.31834 21.1347
1 16.382 24.4261 12.0583
1 13.1465 25.201 22.1977
1 7.66093 0.368422 5.91093
1 17.6078 27.3397 27.783
1 15.9281 16.8391 28.1217
1 27.3636 23.3475 2.62505
1 27.5487 28.4334 22.8049
1 15.57 24.2368 19.5225
1 17.9255 2.55311 11.7523
1 26.816 6.63843 27.9288
1 13.4128 20.8976 21.5989
1 1.15643 29.7391 13.7871
1 29.4277 25.3753 24.5743
1 13.6442 27.5438 6.96202
1 0.779712 30.1258 8.53411
1 23.4134 4.99872 1.83581
1 18.6283 4.56028 3.49035
1 29.2269 3.3839 0.904541
1 25.0956 5.11464 5.89877
1 19.0901 10.6079 28.0399
1 21.0663 7.74429 3.87082
1 8.88854 23.4246 4.37003
1 27.7026 9.29141 11.5678
1 18.793 9.06936 14.5308
1 8.13199 21.1412 22.0467
1 9.04207 8.68673 7.66201
1 25.1951 24.7991 20.1019
1 18.8884 15.756 23.9292
1 5.16457 24.4275 16.7534
1 13.946 12.0016 2.26764
1 25.9712 17.8405 0.822633
1 27.0748 16.0107 22.052
1 14.2616 12.2921 27.1493
1 25.1228 18.438 3.09142
1 6.00797 7.80891 14.233
1 10.8427 6.85496 27.2214
1 15.9957 30.0204 13.9346
1 2.27583 16.5917 11.515
1 9.07099 11.1403 8.26233
1 20.5729 8.17346 1.66439
1 19.1119 10.159 15.6062
1 26.6389 0.557537 16.3286
1 13.614 9.03999 22.2829
1 2.74416 14.528 4.13919
1 29.1662 23.3553 28.3302
1 0.87582 24.8274 11.9391
1 22.9854 9.39983 26.817
1 30.0628 6.37132 17.5414
1 17.6992 20.081 23.827
1 6.496 5.16389 22.3425
1 20.541 1.36959 5.02684
1 11.7006 8.02898 10.8282
1 5.9954 26.5638 14.0819
1 26.7992 9.80087 6.7813
1 24.8727 2.48354 15.8389
1 10.9649 30.2379 22.8896
1 10.2597 26.0692 5.90044
1 29.1313 17.2415 3.62927
1 6.83715 30.006 12.2789
1 21.2698 2.10667 30.0154
1 9.14037 23.2527 5.76882
1 19.8805 12.4895 29.2525
1 18.2117 16.0855 22.7548
1 7.70657 29.2754 2.94038
1 20.0665 1.56231 23.7325
1 10.4672 3.71411 5.42044
1 11.9833 4.57771 22.8528
1 11.6399 1.01681 23.5974
1 1.26312 3.26937 10.4846
1 13.4408 13.2687 5.78609
1 15.8818 19.3603 26.0688
1 20.9099 27.1353 0.0565751
1 10.8494 13.5646 2.28716
1 3.12704 7.85321 11.2914
1 6.32335 12.7259 28.87
1 14.483 26.4554 19.7091
1 16.34 19.5014 1.98139
1 12.42 21.6033 30.2247
1 8.46831 16.2449 28.2367
1 11.3022 4.89011 10.844
1 4.45176 18.5268 29.2153
1 3.12886 4.81259 16.3017
1 26.0982 20.5565 18.8041
1 3.13152 25.6806 15.7675
1 27.3764 16.4407 15.6708
1 11.7326 4.30919 25.7467
1 4.90469 23.9917 29.4418
1 28.9605 1.41598 11.2941
1 13.0233 18.8935 2.03908
1 15.3068 11.3354 5.30498
1 10.3376 10.8515 24.7163
1 14.7651 8.91744 19.8029
1 29.7249 24.3473 9.68057
1 5.4424 11.4221 12.0489
1 12.4241 6.46188 29.2452
1 10.6303 10.3497 7.42621
1 7.91878 18.9416 17.8987
1 5.17173 16.0186 14.7692
1 26.9599 22.9993 10.0496
1 23.915 19.7531 19.961
1 24.7623 14.0358 8.81146
1 19.2822 3.85374 4.30173
1 9.0513 26.2848 21.064
1 26.9987 2.36214 25.5327
1 13.0445 16.4319 6.86836
1 19.7298 16.2048 3.02514
1 2.23753 1.72442 20.4919
1 15.9353 13.9837 27.9408
1 14.5582 3.13787 27.4673
1 2.2445 11.7368 10.0667
1 21.0984 11.5832 1.02683
1 23.6857 9.41527 1.88298
1 6.64572 0.451228 8.1816
1 16.2124 0.911107 10.1737
1 12.7479 1.28393 13.8121
1 19.4641 1.11082 16.5571
1 5.028 26.6426 14.9661
1 26.2323 16.0249 12.1607
1 16.8097 0.489181 2.9829
1 11.7766 25.4595 12.1732
1 4.8267 20.9614 9.09023
1 20.8442 1.54276 14.3832
1 21.5385 18.2719 2.88786
1 6.36337 22.1393 8.36901
1 8.2516 28.046 16.8058
1 12.4058 25.8066 21.269
1 24.3433 9.2453 19.2226
1 27.7895 13.5789 12.004
1 6.4447 8.77125 6.82267
1 23.8916 12.7931 4.63478
1 13.8158 1.89272 19.5428
1 10.3154 14.5351 29.3455
1 5.98886 11.7128 17.0767
1 17.0756 27.803 7.32574
1 17.4666 9.31133 13.9038
1 13.8224 28.0631 1.26615
1 24.2938 4.56614 12.024
1 18.541 14.1821 28.5577
1 12.5041 6.91616 26.601
1 3.67148 4.76139 4.74344
1 1.28164 20.507 22.7156
1 16.8409 7.65122 11.8764
1 4.18498 12.4009 27.6099
1 26.2142 4.68707 2.25476
1 6.30874 17.5632 24.6884
1 9.2215 0.678562 1.61041
1 9.61394 13.5871 1.42113
1 12.7334 15.9057 14.6018
1 29.2128 15.6605 12.0656
1 9.54048 19.5638 10.9869
1 12.2963 17.4338 11.4263
1 23.8965 4.26183 24.4571
1 7.81276 27.9089 14.1702
1 13.8233 1.14269 21.7777
1 16.7965 13.8771 10.9702
1 16.7887 24.6263 0.943341
1 6.75109 4.70215 30.3178
1 3.85192 26.1659 21.224
1 5.40766 20.6466 0.274435
1 10.8186 9.75102 19.4254
1 24.6058 7.73292 7.65495
1 20.6711 7.44749 11.2774
1 20.9654 24.4959 17.4566
1 8.11408 26.0345 18.2862
1 2.87533 21.7384 6.88967
1 4.84451 13.6993 13.6576
1 27.1065 9.94431 16.5574
1 8.00429 22.485 27.3395
1 6.35027 11.3526 30.0995
1 10.3602 26.3386 0.635265
1 5.59051 25.2567 22.265
1 13.4435 2.06115 9.42324
1 18.426 11.4253 17.3643
1 19.0601 13.1077 18.7286
1 25.5227 9.78133 6.35723
1 19.772 4.61754 5.19905
1 19.1579 9.17723 4.92764
1 13.6649 25.727 15.4357
1 7.32031 1.26224 15.8036
1 19.8182 19.2296 5.20503
1 29.6743 2.98387 23.7627
1 14.3171 18.4004 5.6623
1 10.3877 3.1227 23.8606
1 18.3697 30.2712 16.3612
1 5.21741 9.58992 4.91225
1 25.2411 9.09157 13.4598
1 9.0726 20.7505 1.61303
1 6.18625 10.4429 2.86436
1 9.84008 4.48685 19.6241
1 7.71279 5.03605 11.0899
1 28.0107 19.8837 1.69768
1 13.2742 13.8464 15.7292
1 9.1872 12.4513 15.972
1 28.8527 9.41145 3.55497
1 25.256 3.92082 5.20265
1 17.983 28.1273 13.7017
1 7.78669 15.2412 4.68548
1 9.13428 12.408 27.4581
1 4.76868 30.2334 4.193
1 19.3394 13.0867 10.2647
1 12.4957 18.3124 23.154
1 10.5076 19.0944 5.6333
1 13.3329 14.3691 9.80401
1 8.00911 4.83832 12.5264
1 15.693 27.0295 2.38189
1 30.2826 22.1238 6.52941
1 26.9565 7.24727 12.5964
1 13.2876 3.26947 1.4994
1 0.0877019 23.3713 14.2809
1 9.33643 29.701 12.6444
1 18.4686 2.78811 15.1673
1 6.12587 17.4268 28.3725
1 28.5011 22.5993 20.8147
1 13.0965 19.5022 29.7821
1 23.9347 2.70822 27.7621
1 7.04012 2.01148 23.0986
1 12.8986 23.8414 7.25816
1 4.06311 12.9554 24.3977
1 2.95694 17.1008 20.6116
1 3.54902 11.052 19.0351
1 12.4221 10.2992 13.9229
1 7.74436 9.0373 15.7156
1 17.5698 2.17783 23.7348
1 16.467 24.4656 23.7964
1 3.38223 6.14653 20.1512
1 16.5773 13.316 15.7186
1 7.13186 24.9215 17.69
1 9.39462 12.5285 23.8638
1 20.6493 7.83983 7.08331
1 25.8649 22.6158 18.5027
1 30.106 8.39308 1.03072
1 0.724754 17.1076 23.7073
1 8.42537 23.5592 19.1426
1 7.46034 20.3953 5.23579
1 23.9663 11.7259 26.9596
1 1.53773 11.8521 14.9012
1 8.84173 28.0519 30.0136
1 23.6107 24.5896 0.96156
1 22.2109 26.0502 1.48902
1 24.4368 25.5416 4.38554
1 10.5803 28.578 4.29679
1 16.4836 1.49161 6.69305
1 5.53625 21.789 4.52548
1 18.7915 2.42864 7.30282
1 5.0835 9.98529 3.48538
1 0.453999 5.93864 6.83329
1 6.95014 8.25143 29.9451
1 9.78582 17.456 21.3622
1 24.0798 17.559 3.6708
1 8.49406 14.304 26.3594
1 22.6094 10.6876 20.7615
1 29.5147 21.2224 20.7579
1 16.2531 13.4791 5.93889
1 15.9508 14.5873 15.7217
1 6.62939 28.7845 3.99732
1 13.9226 2.12732 26.6078
1 6.83994 27.4106 21.3779
1 7.14636 29.8905 13.7134
1 23.4599 14.6032 22.3118
1 20.2765 6.58227 1.14177
1 18.8338 2.42627 10.8254
1 15.591 9.77162 2.19071
1 8.31138 10.2789 16.1384
1 20.4354 21.8529 26.7371
1 2.72641 16.0185 24.6248
1 11.0467 28.4452 12.1452
1 13.4191 3.76143 15.1174
1 11.3754 2.04762 3.28222
1 21.4655 19.5929 10.1334
1 26.3321 26.4735 25.0354
1 7.03855 29.7765 1.78375
1 22.4367 29.483 19.9158
1 25.8827 11.3942 3.26652
1 10.4864 24.3383 22.2319
1 30.4114 8.76998 7.00739
1 16.5823 1.89864 5.19651
1 4.86588 7.70921 15.2836
1 26.1392 1.21335 10.3101
1 27.7715 9.22543 29.1678
1 6.93473 4.0256 17.9465
1 17.4908 10.7994 25.168
1 19.948 17.4092 18.4679
1 5.99323 13.5181 10.778
1 13.8414 23.074 21.9724
1 13.5517 17.011 8.00411
1 12.3836 5.34801 6.33126
1 4.06956 20.8391 27.2318
1 27.7319 5.96466 16.6984
1 7.57564 27.7883 29.9029
1 26.1213 24.4089 16.0455
1 28.5962 29.1464 15.6445
1 26.9604 11.092 21.9392
1 6.62262 16.3057 6.89368
1 26.9901 21.6741 18.6166
1 5.41785 11.751 5.63963
1 1.31928 22.2518 14.9558
1 8.80186 16.6873 13.8548
1 2.16809 7.24249 2.05441
1 19.1101 10.3993 12.5185
1 0.49427 25.3152 20.1792
1 20.2081 13.7619 30.1717
1 25.9786 6.16349 26.9297
1 4.07895 29.2427 9.19989
1 26.3389 7.28692 22.8348
1 6.82033 16.8252 8.30309
1 7.23067 28.2959 15.702
1 9.22112 27.1529 0.739353
1 8.36998 11.6414 28.1394
1 9.85073 22.3237 14.3786
1 3.60751 28.4358 4.45487
1 7.53868 12.038 18.8667
1 27.8723 30.5322 20.1233
1 30.2606 20.6915 23.5355
1 7.34517 13.8443 29.6924
1 28.5865 11.5394 4.45813
1 19.6127 17.1259 23.8275
1 13.9123 5.17643 6.83144
1 17.0692 30.4497 24.7729
1 12.1674 19.5757 22.9791
1 13.5051 16.441 24.8633
1 26.1539 28.2461 22.9703
1 2.35425 28.7837 6.43808
1 28.3844 9.49422 20.4997
1 10.5492 20.1945 13.839
1 15.371 11.2992 11.4199
1 6.04957 27.9088 18.9556
1 0.00420051 1.79305 26.2733
1 12.4052 3.10254 24.87
1 16.4814 20.6999 22.8144
1 26.2792 9.7194 18.8755
1 3.33495 17.1276 19.0849
1 7.34451 16.8946 15.5829
1 4.67679 8.33686 27.7536
1 20.8637 2.9205 8.54785
1 2.14428 12.3324 22.1108
1 5.81952 0.303973 26.4702
1 3.45938 6.87923 12.1144
1 4.12304 16.0474 24.9743
1 25.9206 1.74752 0.747056
1 5.37879 25.3129 10.5309
1 19.3395 9.81367 24.6389
1 16.3049 11.5613 23.0295
1 11.877 16.2485 27.9868
1 14.8195 14.5016 24.2146
1 14.6738 27.8865 21.5045
1 2.50489 10.143 3.8816
1 8.14253 5.82237 7.34619
1 27.118 29.308 1.69725
1 3.15245 2.29437 27.4082
1 12.3706 26.7984 2.90885
1 14.5783 26.9678 28.9533
1 5.93955 20.6024 11.2784
1 26.8717 27.4564 18.5535
1 20.9362 3.6927 6.07002
1 15.4745 8.91107 29.385
1 17.3348 13.737 23.9667
1 4.78558 13.4948 19.6941
1 2.74166 5.74606 17.6338
1 8.80103 25.0927 8.34463
1 16.4352 1.59266 16.6777
1 28.6291 1.35153 20.8449
1 4.88361 25.2551 28.9268
1 26.2655 0.590733 3.49897
1 18.2286 14.5994 3.30705
1 21.2949 12.5276 16.0632
1 28.4506 7.19118 15.7913
1 8.5456 18.7218 28.2777
1 6.17745 24.1347 10.9405
1 7.01285 2.09632 9.67612
1 11.7428 30.1745 21.713
1 0.402871 19.811 24.6811
1 14.1782 14.4355 3.61108
1 17.5711 25.1172 20.5363
1 5.03055 14.82 9.02096
1 6.23924 17.4973 10.4182
1 28.8706 0.402709 2.5786
1 3.45245 6.73107 9.34305
1 29.7883 18.3396 0.887497
1 0.561471 8.64741 20.2316
1 4.29215 28.4013 22.2296
1 12.5137 28.9345 22.0154
1 9.51996 13.3783 20.5511
1 7.52954 26.7144 4.05964
1 9.19173 20.215 19.5811
1 11.1909 6.49467 20.7402
1 1.13973 1.05889 1.99485
1 9.30711 16.0199 2.32887
1 14.5467 24.375 0.785964
1 4.77327 22.6752 12.4063
1 23.4973 26.2428 15.2923
1 14.7211 10.1002 11.0098
1 9.04903 21.3186 17.3222
1 22.0413 15.8279 30.3839
1 12.0426 28.0436 3.89373
1 6.74258 25.4013 14.1086
1 4.15528 25.5607 6.89426
1 28.6856 16.1317 19.9123
1 19.1062 23.6383 15.4136
1 22.2356 10.6325 11.4782
1 23.3608 11.8934 28.3467
1 17.9751 15.4324 14.9086
1 17.0966 20.7716 26.6889
1 26.8712 9.46065 28.2344
1 20.1255 26.3609 25.5962
1 13.4637 2.68242 13.9582
1 16.874 11.423 30.1016
1 26.4843 22.1109 13.7419
1 11.7909 22.7234 18.0668
1 23.6607 17.2595 15.9129
1 2.884 14.0581 11.7657
1 4.22649 19.2233 3.44287
1 4.38755 21.6125 0.797575
1 15.6909 15.7985 0.845866
1 29.4546 20.8897 19.2639
1 11.7166 4.11254 24.3478
1 20.8562 21.3708 15.388
1 21.786 4.295 25.9833
1 15.1316 9.40404 22.8588
1 6.67678 1.78364 8.29158
1 24.1265 27.0073 1.7573
1 24.6054 25.7525 1.28173
1 23.9102 20.0972 6.03809
1 6.50571 22.6806 13.0273
1 22.9832 18.4507 23.6678
1 14.1581 13.3442 21.4814
1 30.1013 7.63969 28.9258
1 16.2294 12.4229 25.4672
1 1.40469 13.721 20.409
1 17.3251 5.26533 9.47738
1 15.4778 24.0868 28.3385
1 8.31221 26.6946 23.4577
1 25.0843 0.609884 27.4299
1 15.3629 4.44753 6.36871
1 17.3434 19.6288 27.564
1 6.26311 22.3852 1.8768
1 20.3695 25.6926 24.2468
1 20.0933 5.8434 7.90782
1 11.9459 15.0369 24.6343
1 2.22784 12.3647 8.07467
1 18.5351 8.71597 16.3081
1 2.1524 10.654 16.8313
1 14.3173 8.07536 9.4612
1 10.325 18.2295 25.7842
1 21.9113 7.92294 19.2465
1 29.6746 17.9984 27.9621
1 12.4278 27.2241 1.69688
1 15.6133 5.77147 17.7172
1 5.70387 16.7732 21.8394
1 16.1284 14.1354 9.68675
1 15.9442 14.5992 3.15769
1 2.18503 7.02174 15.8281
1 23.1447 23.3489 10.8354
1 12.0995 22.9573 13.5452
1 10.2329 7.49074 24.8629
1 11.8072 9.43435 26.8996
1 9.21304 30.6516 27.6215
1 24.2938 0.887688 12.0665
1 4.86171 19.9947 2.42517
1 30.0112 10.0901 14.6457
1 22.4116 2.49082 27.8389
1 1.89447 15.7791 3.86517
1 0.722636 4.73828 5.1556
1 4.14764 7.62587 24.2216
1 19.3764 20.0581 12.5806
1 15.9256 8.59225 21.9415
1 2.31743 22.0158 25.928
1 11.5184 21.3992 0.966531
1 22.9933 3.16681 6.24412
1 23.3425 14.8425 12.3129
1 9.39597 17.4903 12.1646
1 2.25749 16.61 15.089
1 20.1004 20.2522 28.8273
1 28.0835 29.4455 5.60093
1 22.1169 10.9319 25.1086
1 23.7193 29.3874 3.23665
1 6.41036 19.5016 19.7861
1 8.0248 2.58963 4.46853
1 5.08247 25.5214 27.3693
1 28.76 3.6759 24.5789
1 4.54897 20.3239 25.9039
1 2.07603 8.43473 22.6291
1 26.1584 21.1963 28.1582
1 11 13.0245 6.11512
1 6.21002 4.2789 24.5371
1 12.4609 1.65616 8.69291
1 0.162127 21.3778 17.0746
1 25.6559 23.6205 6.39187
1 28.1658 30.0903 13
1 7.30407 18.6275 22.0043
1 30.4357 13.9897 23.3836
1 29.5346 22.0173 28.2593
1 2.49711 4.6736 1.22201
1 4.99907 27.9365 28.0659
1 5.86067 16.8496 20.4316
1 28.9715 20.8761 15.0289
1 15.2956 24.1576 20.9916
1 27.2442 11.1471 23.5164
1 5.65429 2.38592 7.39569
1 30.4255 17.2817 30.1772
1 12.0658 22.6948 29.2626
1 13.1498 28.7468 19.8472
1 13.4826 16.9748 15.1789
1 7.17548 20.0036 9.12123
1 20.6423 24.1414 27.7563
1 25.7346 11.1569 19.347
1 12.0901 26.9462 25.1229
1 26.6319 24.7416 11.8694
1 10.5784 19.3203 0.176867
1 22.9889 5.91893 16.2092
1 24.0098 22.143 10.1799
1 5.50079 13.7919 4.24328
1 10.0226 10.7246 9.2996
1 2.84922 12.1478 24.6852
1 13.987 23.9685 10.2254
1 25.9555 2.81925 24.4907
1 10.868 27.9065 10.0743
1 11.5917 16.6767 14.1543
1 6.23677 12.7478 2.78722
1 -0.144615 14.6572 5.21489
1 19.7419 17.4841 9.97332
1 4.65027 11.027 6.77581
1 18.0113 22.7703 9.34005
1 12.7917 29.6707 10.4693
1 24.1215 0.457916 1.31442
1 3.91256 19.3776 18.829
1 22.0135 28.4087 1.89396
1 27.4747 13.6511 1.17053
1 24.8767 13.5668 25.5564
1 6.05855 30.4156 22.9725
1 17.4972 22.6228 13.6574
1 17.0452 21.2622 5.69013
1 16.2914 12.7596 23.9005
1 14.0459 28.7607 18.4296
1 14.1677 28.0911 12.5925
1 10.6862 26.6872 22.7561
1 23.1174 18.5965 15.1256
1 12.2451 17.6357 21.8956
1 28.7128 18.6812 12.4687
1 21.1334 10.1041 6.48354
1 25.5151 20.1338 28.7356
1 5.11644 28.4481 8.72678
1 16.1024 11.6025 18.9975
1 22.4601 7.96415 30.2857
1 19.2663 15.6934 27.178
1 23.0895 0.671483 16.8387
1 25.3654 21.2987 6.86331
1 14.1585 11.1892 7.46857
1 9.21906 18.7808 18.8954
1 2.93471 16.5666 27.2529
1 6.16383 24.6069 2.90945
1 3.46936 11.737 12.9137
1 26.6732 11.5877 9.53177
1 28.5503 23.4437 12.6693
1 2.8546 1.46522 8.50036
1 14.6275 29.699 15.9662
1 18.3234 25.0236 12.831
1 25.345 27.2207 23.9846
1 19.4149 7.63645 16.0186
1 26.8413 4.77331 8.51737
1 4.64177 24.2431 26.5469
1 14.7768 7.72574 4.25605
1 21.737 4.30132 28.4512
1 4.88875 11.0542 9.57603
1 27.7662 1.82904 18.1407
1 15.5017 2.39367 22.6736
1 0.911467 18.7722 7.37862
1 10.8797 22.4017 24.6179
1 24.5148 28.2388 10.8688
1 0.467392 11.5199 18.8753
1 19.0699 21.8379 2.24931
1 26.6874 5.30948 24.3619
1 25.8843 0.381323 18.7572
1 6.35801 27.8018 13.3056
1 21.6595 4.07468 15.9452
1 8.64261 15.6398 0.162076
1 9.89415 2.00241 20.8333
1 4.27203 29.865 16.9381
1 17.5213 3.60131 25.9979
1 13.107 24.497 15.0452
1 24.4834 16.9318 24.2826
1 10.3592 10.1772 26.2891
1 4.03829 19.1748 10.7346
1 16.5956 6.90451 2.38011