4096
Atoms. Timestep: 102800
1 14.7781 20.4717 26.2341
1 2.68826 8.49865 12.1255
1 0.969659 5.912 14.4938
1 9.42006 17.2345 0.628684
1 8.69027 8.57372 15.9511
1 18.1949 14.1407 2.90673
1 7.33387 9.33371 5.4203
1 17.9422 14.7212 15.7564
1 7.3817 10.8186 14.226
1 27.4818 2.73067 16.4998
1 2.6735 23.7201 1.68184
1 2.10593 22.402 15.117
1 8.50854 26.9291 0.811498
1 8.0358 20.6084 6.72244
1 16.7349 21.792 15.4905
1 2.8036 24.8375 20.1756
1 28.226 9.44374 7.58952
1 29.8821 16.1997 3.65754
1 23.8078 26.9064 14.8676
1 20.1744 9.28222 11.2943
1 15.2051 21.7936 15.3337
1 19.5444 7.79754 8.45185
1 20.4085 6.97988 7.73147
1 0.498712 22.9114 24.5641
1 5.51998 28.6848 8.31043
1 12.8357 12.9721 6.09903
1 28.6769 26.8676 27.7425
1 21.4961 25.638 11.8438
1 24.7263 19.7964 16.2584
1 30.2767 2.68373 19.8399
1 26.4979 24.5209 17.6462
1 20.1286 6.75765 14.4174
1 15.5721 26.1421 19.8509
1 8.36025 10.3411 13.4271
1 20.3725 23.5527 17.0629
1 27.2621 12.3898 24.7928
1 15.4333 3.09126 6.621
1 12.8166 14.7017 10.5531
1 22.5963 1.96003 13.9186
1 3.43267 8.74368 20.1424
1 29.2805 6.72897 13.2494
1 29.747 0.730852 27.918
1 24.8296 20.4111 6.08669
1 14.1716 13.4777 20.3984
1 2.17328 19.8041 6.67614
1 7.93532 25.78 20.8239
1 13.3735 0.689592 18.7795
1 23.7487 10.614 6.79176
1 23.5864 29.3698 28.0986
1 27.4071 1.92862 26.5629
1 29.0914 15.1091 1.3565
1 17.9443 28.3493 13.5037
1 8.15414 25.799 28.6355
1 28.5574 11.553 13.4368
1 7.75436 13.5387 8.18034
1 8.75165 4.41819 16.6912
1 2.00052 9.30623 24.8123
1 9.75926 24.8893 14.0243
1 2.60944 13.9512 14.9451
1 25.9172 8.93103 29.7663
1 4.81403 13.7264 8.85252
1 28.2901 28.6258 6.53354
1 16.7976 5.70109 20.9102
1 15.8496 25.989 1.1582
1 29.0388 24.3097 15.0966
1 17.8376 4.42678 6.93322
1 18.5212 23.7283 6.55021
1 21.536 17.2251 21.6186
1 13.6275 12.1104 15.8003
1 3.60016 29.3433 12.8568
1 0.878475 13.2245 5.46584
1 18.0661 5.89128 9.447
1 27.102 8.29266 30.1227
1 18.8138 7.08312 9.60364
1 30.435 6.16352 1.78463
1 12.1925 4.6623 13.4648
1 6.15472 12.0067 1.83624
1 19.8044 14.1797 10.0906
1 4.22978 4.4552 15.4749
1 3.32476 13.7763 11.9139
1 6.74022 25.9699 6.26652
1 2.50548 3.45367 26.3942
1 10.7772 22.4819 1.85177
1 18.7953 2.33774 26.0833
1 10.1003 27.6168 20.1295
1 7.84482 4.80802 15.834
1 8.93948 17.7868 21.3966
1 19.0185 24.8414 10.1779
1 10.9061 15.4926 30.2574
1 0.785715 4.47257 12.7047
1 26.5648 7.81008 17.8003
1 27.337 4.64531 20.4479
1 23.002 7.15524 19.0847
1 22.5697 17.8768 7.62907
1 27.6936 25.6214 8.964
1 3.4876 12.7901 3.75329
1 18.5854 27.5498 9.18184
1 8.21221 21.4256 28.156
1 26.6136 29.507 18.5003
1 21.4041 13.8084 20.4187
1 21.7124 20.4799 19.463
1 15.5661 11.9276 0.604722
1 5.55774 22.8258 9.18579
1 18.7783 28.3176 29.2011
1 20.5871 5.47167 29.3413
1 25.5461 28.7043 28.4127
1 28.2192 6.57469 14.1228
1 14.7907 1.28656 22.2178
1 15.6128 7.28572 2.71003
1 6.54283 7.7346 23.3872
1 20.7795 10.2165 8.09673
1 1.26375 21.0298 17.4984
1 8.72543 6.12701 6.00386
1 12.3212 23.2494 16.7593
1 1.1554 10.8316 21.3043
1 18.1217 29.7941 22.2971
1 28.0575 1.44088 18.9025
1 11.8027 22.5673 2.84097
1 20.4884 1.58147 10.4791
1 9.41951 10.7632 7.46986
1 27.8297 27.4638 2.41643
1 22.546 10.9133 1.8273
1 0.314897 3.52735 10.2118
1 21.5967 7.72582 24.913
1 6.53231 4.58482 8.02793
1 6.68898 25.1032 4.83421
1 10.6838 5.43893 4.85561
1 25.9674 15.8426 3.75301
1 24.0056 18.4055 20.9128
1 1.75276 4.2963 27.2246
1 5.324 14.7934 16.1562
1 8.48715 15.3533 16.8985
1 0.41679 6.13298 10.9038
1 15.7235 21.3422 25.5043
1 4.41824 24.9585 28.7723
1 12.5672 10.1278 18.6478
1 27.5146 8.96291 12.0292
1 9.35235 18.6841 14.8065
1 20.9493 12.5487 16.9932
1 2.03343 12.4966 22.6012
1 16.7248 14.7885 22.5352
1 11.15 23.7468 7.17765
1 11.6563 22.3894 11.2388
1 14.6933 6.83211 8.95633
1 10.6018 16.0801 9.75384
1 10.168 0.636092 12.2895
1 2.45531 0.835213 24.0214
1 24.4861 2.65681 23.0651
1 25.286 16.0481 6.06903
1 27.6007 17.1673 22.7631
1 20.294 11.6694 22.3705
1 7.93215 10.9785 3.39158
1 4.08487 21.9765 18.5903
1 29.8126 12.0093 27.1164
1 18.837 10.6482 26.5869
1 6.58206 20.2761 29.0335
1 6.51053 28.6139 4.93178
1 16.294 7.4516 14.1079
1 3.87809 7.70021 22.0172
1 17.2883 20.4326 20.411
1 28.2726 3.09688 22.6585
1 11.4101 6.67676 16.623
1 6.55984 12.0897 11.9646
1 7.00716 17.6385 4.18426
1 20.1184 9.73285 14.2458
1 23.7661 28.1635 14.4612
1 20.0013 29.7036 19.4775
1 25.2027 16.199 30.2075
1 26.7194 3.58307 23.2705
1 10.1252 12.7654 15.2576
1 24.4222 14.8466 27.5162
1 12.3798 18.5199 5.32843
1 25.6533 15.9947 2.28326
1 3.89847 24.5744 4.82184
1 28.6307 18.4265 8.77321
1 4.90401 19.0916 16.4745
1 20.3852 0.416577 15.5153
1 13.1424 4.12985 15.6618
1 1.8492 26.7199 17.3149
1 7.79939 5.86879 9.85996
1 8.32726 28.9171 17.0655
1 10.4217 24.5573 25.5255
1 21.763 19.1628 29.0887
1 26.5929 25.5944 2.98864
1 20.9562 23.3895 4.01002
1 5.28284 14.8268 22.541
1 15.1938 8.26455 13.5785
1 9.00833 16.9387 7.99062
1 5.17911 28.3445 22.5893
1 5.36419 17.7774 6.94388
1 27.0238 28.8449 12.0355
1 14.2276 27.7102 22.6031
1 29.275 2.22913 2.01345
1 9.39973 7.44447 29.3094
1 11.2569 6.12805 8.45846
1 0.47341 3.129 12.8701
1 11.2547 27.1712 1.5419
1 6.43614 10.8893 24.8127
1 7.1663 26.2573 26.0964
1 28.7969 18.1644 6.49192
1 1.48818 7.15758 20.7524
1 8.28774 15.056 19.609
1 15.2031 12.8293 5.30451
1 23.835 1.93335 6.19864
1 5.54767 10.4821 5.68435
1 14.4086 9.43054 22.3619
1 21.6044 19.9857 20.7585
1 8.7604 18.7567 18.3482
1 12.3218 20.2939 26.7272
1 30.3476 10.0809 28.6373
1 24.2829 15.8728 18.5485
1 13.3764 1.58175 17.6801
1 9.64976 14.138 4.55838
1 22.6218 16.6515 16.0352
1 22.3197 5.71481 14.1285
1 8.9405 6.81297 3.53469
1 23.4091 16.4177 19.4575
1 3.83324 19.8874 11.6421
1 23.2975 15.1754 26.6357
1 6.51448 11.7602 5.4951
1 10.8285 20.716 12.4938
1 12.0095 13.1612 8.92924
1 21.2644 13.1597 26.049
1 1.53162 24.1317 7.39912
1 17.3134 13.2672 13.7882
1 23.7542 8.84633 26.7436
1 19.4946 4.1818 15.5879
1 18.0069 21.2303 8.97197
1 9.02362 12.3905 15.9672
1 2.01427 24.5979 17.9208
1 5.47881 19.0577 2.83863
1 7.54661 10.3266 24.3778
1 26.4994 20.1963 25.2955
1 28.6505 2.62202 24.0013
1 15.9731 6.38868 24.2225
1 1.66218 20.1336 10.1502
1 7.81781 13.5737 1.59501
1 19.3784 4.67728 14.3331
1 26.4215 27.0166 2.06638
1 29.1165 24.3228 22.9869
1 22.9291 3.16337 1.49249
1 30.4672 25.5748 25.7311
1 16.2071 5.9588 6.08961
1 10.9783 7.51329 14.2949
1 21.8815 6.9864 8.32476
1 16.9224 2.62594 27.6954
1 29.7198 7.66882 4.53738
1 24.5897 29.0598 25.9011
1 16.801 13.4797 27.6817
1 30.0513 16.6872 26.4309
1 12.5739 3.26143 6.12075
1 11.1939 19.9959 30.2127
1 7.93726 27.5181 15.1951
1 26.0736 27.4494 5.03866
1 16.9015 25.6349 15.81
1 4.60009 21.1251 5.57034
1 8.60724 26.9662 4.8069
1 0.0434016 6.65867 18.7122
1 5.64991 23.3595 0.93361
1 24.5824 20.9595 11.9677
1 3.67133 16.2043 9.10074
1 3.20121 16.2902 28.1786
1 16.5281 29.1531 29.5061
1 6.03326 20.0449 9.28091
1 26.1436 7.33304 15.3215
1 5.46127 7.15038 10.8669
1 11.0757 3.89924 0.224875
1 11.5933 26.7712 27.5023
1 25.8431 4.44358 10.2246
1 11.8028 18.983 2.78801
1 23.9096 4.1363 5.64121
1 1.50403 21.3012 22.4996
1 2.30199 19.8959 3.54185
1 13.3755 19.7371 25.7401
1 16.2915 15.1429 0.868122
1 7.69176 24.8907 25.7464
1 15.1117 12.1685 19.0937
1 16.3899 28.4199 18.4318
1 22.2642 12.8185 28.8526
1 14.2549 26.2451 15.1901
1 12.9893 22.7128 25.8074
1 20.3707 0.743202 24.5829
1 26.3143 15.3632 8.40434
1 7.70776 14.997 1.41035
1 10.4414 18.0605 20.5537
1 29.0621 5.68709 6.19205
1 8.27794 18.9102 9.40769
1 7.61369 28.1886 22.1045
1 27.7867 15.3658 0.54866
1 4.20201 16.8157 20.8544
1 3.51245 19.626 16.6074
1 12.2702 18.7536 11.9342
1 20.4191 11.6365 0.248269
1 29.6805 20.667 27.8671
1 4.88165 22.825 29.909
1 24.1529 7.84993 7.0192
1 12.1777 2.07145 6.68031
1 27.7951 10.0833 24.785
1 21.9612 24.233 15.1738
1 8.33732 16.8095 10.7543
1 15.369 24.8065 16.7703
1 13.1822 20.7708 13.3824
1 2.48602 9.79764 10.9664
1 7.03056 23.3205 28.625
1 17.8327 18.9321 20.0903
1 15.8355 3.84576 27.6051
1 24.2832 20.5014 2.54127
1 9.24988 22.5813 7.86755
1 21.0327 0.985671 23.1829
1 12.9507 1.89455 25.3832
1 2.48922 5.36562 26.927
1 12.4248 27.5718 17.3576
1 5.37201 28.8049 10.8085
1 21.7267 7.51333 19.2419
1 6.8908 28.5067 15.568
1 6.58824 7.60883 16.5772
1 23.9014 19.5666 18.5688
1 2.10259 1.37465 13.328
1 28.4949 4.2133 3.5591
1 23.2012 28.7233 18.3393
1 23.9955 23.7531 2.09818
1 30.2538 10.2687 25.826
1 13.1022 22.4947 2.11539
1 22.9178 10.5522 19.3469
1 29.774 27.6017 29.9041
1 6.81488 16.4065 27.4824
1 24.3353 14.7197 13.6941
1 15.6651 26.764 10.5804
1 24.1636 7.88967 18.3638
1 24.3128 13.3335 14.181
1 29.7729 16.0858 28.1628
1 2.97161 19.6593 23.0086
1 3.88036 13.1347 21.4335
1 1.85367 2.70892 25.5733
1 20.6219 12.3406 27.0994
1 12.8445 16.0718 10.8396
1 29.4249 22.985 15.8593
1 18.0489 3.50648 16.216
1 19.7417 27.311 1.62947
1 24.9185 7.51231 10.4601
1 20.5746 4.0737 1.97002
1 15.3224 14.3283 21.0485
1 16.2396 19.7706 18.2004
1 13.0693 27.3654 24.3031
1 3.05938 22.4973 10.5546
1 23.1386 5.95772 15.3727
1 17.1039 17.1338 0.813626
1 28.9073 19.0342 4.39906
1 12.8862 8.26165 30.0644
1 23.7002 25.2259 25.0122
1 18.9054 25.1022 2.96709
1 19.1244 18.2131 9.75678
1 13.8182 23.9258 1.66992
1 17.7922 18.579 7.49988
1 2.61441 27.7199 22.316
1 1.13499 2.50768 21.7861
1 13.5517 22.6674 19.3008
1 29.883 13.0962 14.4187
1 6.02427 9.28347 0.367862
1 24.6879 8.72548 0.549208
1 29.0888 22.7962 2.6295
1 10.1992 21.9072 4.9269
1 13.8598 17.3713 13.7141
1 11.6408 4.64712 25.7906
1 7.97728 22.6455 14.9845
1 18.5507 10.2797 24.1342
1 18.9225 19.2245 27.4371
1 7.72534 5.67847 14.8178
1 27.7629 12.3329 20.825
1 13.1204 19.2478 15.8473
1 30.3694 18.5153 8.38507
1 22.4464 12.6894 23.8995
1 6.38923 25.3016 30.2657
1 30.1285 16.3121 29.7845
1 7.11268 29.279 6.16462
1 24.3949 4.43393 2.29857
1 22.8706 0.703728 11.8713
1 21.3852 10.1562 10.921
1 15.9288 9.58365 4.51736
1 19.2916 28.1868 5.74924
1 9.55573 7.34781 14.2345
1 24.9821 8.29775 28.5896
1 27.3085 1.913 7.79439
1 25.837 16.0918 18.5582
1 10.113 28.8615 23.7244
1 29.773 13.7467 7.80525
1 2.50107 17.7341 28.0486
1 25.9037 2.52017 22.5848
1 15.9359 6.24599 13.4688
1 6.93243 21.1338 3.44549
1 25.1779 3.46012 8.11306
1 8.11572 12.8065 22.2961
1 16.8701 17.581 15.5848
1 19.8289 26.2609 2.90012
1 25.9394 12.4995 8.16935
1 4.77436 16.6548 0.238947
1 12.1417 1.05099 26.0205
1 11.074 5.27183 2.25637
1 17.4613 23.2702 18.8457
1 7.64199 8.96565 6.79871
1 18.3974 4.60014 2.82349
1 5.96079 19.7442 17.6086
1 4.81386 22.5834 3.1485
1 27.0638 9.18079 27.0435
1 8.89416 4.60731 24.7358
1 10.0657 25.0385 5.7076
1 19.5509 11.7192 3.86342
1 18.885 27.3698 12.5747
1 5.57482 9.25228 13.2106
1 26.0501 9.34106 9.87894
1 0.986729 18.087 17.8397
1 12.1223 18.2603 4.01129
1 21.3402 7.60347 20.5189
1 13.6891 25.9206 20.783
1 6.48174 0.856518 15.6173
1 5.81834 13.4301 27.8455
1 8.65937 30.049 21.9488
1 8.62195 0.35698 2.83132
1 6.67145 1.75706 11.3793
1 13.804 24.454 5.00464
1 28.521 1.93397 16.5547
1 8.11141 25.394 8.48275
1 23.0404 27.2118 9.52076
1 6.38363 13.3306 1.84249
1 4.0991 17.0014 22.3657
1 8.926 13.6061 11.7475
1 22.8141 10.258 29.4442
1 10.5107 4.6925 18.1592
1 27.7695 1.41385 6.5089
1 21.8204 9.49437 7.24179
1 17.1786 1.94843 20.9231
1 11.1614 5.68507 23.6107
1 5.97715 22.1377 1.87017
1 30.1551 10.8515 23.4944
1 18.2672 12.2748 9.11682
1 5.00621 22.1552 11.5983
1 7.5421 6.88922 23.8996
1 4.13747 1.5875 13.4414
1 29.9657 25.572 0.40402
1 8.79391 23.3375 15.6581
1 21.8802 30.3776 17.3403
1 3.21484 13.8307 6.24867
1 0.151822 4.00946 30.1147
1 24.6909 18.6909 29.1973
1 13.3523 3.52791 27.0963
1 20.9593 9.70606 16.4118
1 24.5815 17.7665 14.5165
1 4.64554 23.902 3.55549
1 4.15784 5.25264 10.2726
1 26.4292 2.90448 29.3071
1 23.0306 23.7014 5.30301
1 7.79995 19.9224 5.35746
1 13.1578 4.65498 19.4785
1 26.7179 1.33748 27.6312
1 14.2806 25.6021 7.15397
1 21.2021 24.9439 5.97087
1 5.50622 27.8837 15.3421
1 16.3687 19.5223 28.2162
1 20.07 5.24534 16.5109
1 29.2651 23.5409 7.07158
1 25.6923 7.3629 27.6093
1 9.81519 28.6781 25.4838
1 25.9765 21.6763 17.2835
1 15.7788 10.746 14.3793
1 0.113817 3.73297 15.187
1 5.15915 1.07904 27.6988
1 13.6241 11.7418 1.53161
1 28.3177 21.7555 19.8599
1 6.27936 21.867 16.4474
1 0.654724 5.07295 8.67032
1 6.57939 6.02577 2.87505
1 25.6568 24.3639 14.0046
1 29.3589 22.1517 22.0237
1 0.980821 8.90243 8.19199
1 9.70445 26.5945 17.441
1 16.5656 2.80313 12.2447
1 15.0216 13.4749 24.4522
1 13.3081 18.0114 29.2318
1 27.8346 16.5437 25.3983
1 17.302 29.7986 10.9846
1 12.8576 18.2022 1.13306
1 29.5749 22.9692 12.7781
1 1.64829 0.385889 14.6622
1 5.21531 10.4728 7.19224
1 11.628 20.9293 11.1714
1 27.356 27.0002 9.30802
1 10.9396 21.8992 27.135
1 25.1089 10.0761 4.5846
1 26.6012 22.0372 26.9172
1 23.6057 8.77351 17.5015
1 28.0902 16.9672 6.16724
1 6.95412 15.8865 2.58258
1 6.92903 6.0426 0.618335
1 21.4582 10.8145 22.864
1 15.0247 25.6608 5.93504
1 22.7683 18.7677 28.0975
1 4.31114 14.1537 2.0255
1 2.19883 17.839 24.2243
1 17.2787 12.3588 17.641
1 6.10189 11.3235 8.02002
1 13.4445 19.7901 7.46418
1 18.443 22.5525 27.3231
1 12.4458 25.6227 25.4009
1 6.37042 8.53792 9.21637
1 19.6952 15.5306 22.5714
1 19.8626 26.0224 25.7257
1 10.519 6.72916 17.8722
1 17.3899 19.0128 25.0229
1 26.2595 10.5207 20.9804
1 27.3245 16.0679 10.9893
1 1.11573 10.3946 10.999
1 11.1491 7.68255 25.3794
1 11.175 13.3665 23.9411
1 1.99012 20.8416 27.131
1 13.3506 3.92646 5.24373
1 5.79214 29.6889 18.2523
1 6.93923 22.3432 29.6389
1 28.3491 17.2462 9.32258
1 27.8459 29.3283 5.49007
1 13.9229 8.42442 12.6715
1 9.53352 18.7263 4.11918
1 10.9803 2.69061 14.6957
1 16.5482 2.73248 9.97451
1 12.7074 28.5356 2.96503
1 10.4165 0.500404 19.1905
1 2.17098 10.2557 16.9659
1 8.66569 18.7612 5.27087
1 4.51879 17.8082 4.70435
1 12.3577 9.76541 7.74538
1 11.7862 8.79804 2.23064
1 6.48554 18.8137 14.734
1 15.0257 1.30613 8.62022
1 17.4285 15.2099 26.3244
1 18.9991 13.6776 21.5744
1 6.2651 8.51572 2.78485
1 16.5386 23.849 9.7521
1 26.7813 3.99563 28.4888
1 21.1169 8.54385 0.552368
1 8.30854 4.98093 29.1715
1 16.496 19.5766 4.10877
1 10.8748 19.2456 20.5847
1 11.5781 8.48377 12.5206
1 4.74619 14.1733 27.0808
1 2.26056 16.4649 11.9836
1 7.36035 25.9562 2.69383
1 19.1092 29.9075 7.61927
1 19.2026 9.23759 28.9836
1 11.3692 14.9941 26.9201
1 2.50201 5.41313 10.0783
1 16.9375 29.7176 0.557989
1 8.61999 21.4761 17.3133
1 28.4501 2.74914 26.4687
1 20.9331 29.7463 28.9858
1 4.23185 0.13734 28.2304
1 1.77408 22.5031 26.5225
1 6.32318 10.7883 26.1665
1 1.34958 6.86923 19.3985
1 14.1115 11.3695 16.9173
1 23.0838 14.4784 5.89612
1 18.5233 23.7842 8.08331
1 30.1483 25.6578 1.79152
1 18.7378 12.4012 17.677
1 5.24589 27.8411 19.9406
1 28.0703 18.441 16.1464
1 3.57437 12.0839 8.01736
1 2.68687 6.71426 2.53844
1 11.936 7.50471 2.19606
1 1.1605 11.2682 22.7307
1 10.4836 25.8852 16.5801
1 9.88319 8.20183 24.2599
1 9.92755 8.97299 18.144
1 24.7786 3.35187 13.4308
1 15.7809 6.89801 21.4032
1 14.7732 29.4869 23.5287
1 15.2893 22.8094 25.2564
1 17.4653 2.90774 11.1357
1 29.7851 7.02803 8.42313
1 22.9278 0.300062 20.6338
1 16.5564 13.1519 12.5959
1 8.11146 22.2397 8.48373
1 18.1712 24.5578 24.7357
1 9.94816 17.3836 22.4123
1 2.22903 27.0025 2.69609
1 9.46416 20.8616 27.8547
1 24.7499 10.7363 16.5904
1 2.35107 15.0337 27.3848
1 23.0325 9.07959 9.38328
1 7.7796 21.1407 4.5921
1 23.3445 20.8468 12.8881
1 13.4539 18.3138 26.0777
1 23.7769 12.8912 29.1042
1 10.7724 5.85773 10.8624
1 4.95741 7.34148 18.8039
1 23.4242 7.92106 30.046
1 3.80681 10.8857 13.9659
1 11.2066 21.7929 21.6948
1 21.9698 26.9092 25.6095
1 12.3871 8.09327 24.6962
1 13.1791 2.0743 9.7145
1 7.85342 3.96504 23.9612
1 2.30199 10.8536 24.9557
1 7.13558 13.1329 27.1154
1 25.9749 14.9196 0.417105
1 8.33407 20.0708 13.9512
1 4.47887 9.00736 17.8317
1 24.7018 13.7684 3.50013
1 28.8541 11.9087 6.65569
1 13.2363 20.2903 18.1006
1 12.6814 4.44844 3.84742
1 24.4105 4.083 14.7709
1 27.3941 12.8485 18.4442
1 7.65403 11.1321 17.806
1 4.20658 16.7516 16.6607
1 24.9279 17.5028 16.9969
1 19.8212 5.4358 23.6485
1 10.9135 4.42029 3.24919
1 2.14553 24.9636 24.1023
1 16.7201 12.3293 16.2873
1 24.1089 21.5939 1.35466
1 29.699 19.944 10.9522
1 11.9917 24.5692 29.1349
1 0.598474 29.4886 2.07098
1 20.1602 22.2229 20.8336
1 21.6766 18.0791 17.7822
1 8.6867 15.024 25.338
1 9.09161 13.7663 29.9848
1 5.99271 13.8968 3.49845
1 27.0466 29.1257 28.7168
1 2.05435 25.2701 14.2467
1 13.4579 9.39817 0.460642
1 12.5928 26.4641 8.45403
1 29.7601 5.35201 12.1048
1 28.8286 29.8603 3.89787
1 4.72956 4.93344 6.42675
1 4.02134 2.77248 2.09344
1 5.58232 7.52648 27.2501
1 7.05712 28.8488 17.3081
1 0.184563 4.58099 27.5162
1 10.725 16.8961 30.1406
1 10.4166 27.4362 14.6274
1 11.7068 29.1086 3.68447
1 17.0013 17.4014 18.4093
1 24.5604 27.1052 12.4063
1 20.0431 17.8793 28.6237
1 24.2405 5.01403 22.4836
1 18.0312 21.2081 13.2794
1 15.9811 29.0318 8.0964
1 15.8147 9.65897 24.0459
1 24.7812 19.7166 14.8556
1 5.62334 21.948 29.0351
1 1.28712 13.3177 16.2865
1 3.6444 6.36504 21.6994
1 1.07887 19.8084 24.2349
1 10.4555 11.5387 20.8029
1 4.18328 26.6691 9.43516
1 29.7585 0.762387 4.12929
1 29.185 23.2822 24.0801
1 13.27 6.65076 14.4875
1 6.05413 20.1011 23.4458
1 25.1426 1.53215 15.6996
1 10.5911 27.5452 6.92682
1 5.60572 28.2155 13.5188
1 10.7476 24.5734 27.1632
1 5.58211 7.85777 5.13167
1 3.03655 28.0725 7.64991
1 17.152 10.0078 0.733978
1 15.0562 16.1628 3.01856
1 0.123097 14.7012 27.957
1 9.13 11.4554 26.6155
1 28.9073 0.36689 19.2416
1 12.7138 19.9083 24.066
1 4.52424 17.9008 19.9504
1 14.9135 15.051 13.3627
1 2.97825 7.45911 1.12377
1 10.3555 18.3089 13.8786
1 22.0911 22.2922 23.8624
1 24.2042 17.8987 12.9004
1 15.8355 25.457 28.4978
1 16.9557 15.6743 5.5732
1 23.6889 13.5026 19.3222
1 6.36117 23.0739 15.2647
1 8.58087 3.40766 8.76416
1 4.66171 15.5512 20.2831
1 15.0482 0.948679 13.9809
1 12.2382 15.5079 2.08897
1 26.9564 21.1404 28.8808
1 14.8131 26.56 9.44808
1 12.4738 9.76223 3.13169
1 15.5914 2.05996 30.1171
1 5.89739 2.57934 12.1642
1 27.4859 16.6817 28.5374
1 4.92593 26.3454 7.15145
1 23.6613 9.16992 11.9172
1 19.907 16.0339 19.6433
1 16.2477 17.8153 29.7084
1 2.57741 20.6602 21.867
1 28.0914 13.9645 24.9874
1 11.5078 13.8345 18.814
1 6.58095 15.0892 15.4879
1 18.7464 7.21361 5.69071
1 20.0033 5.56633 7.66652
1 27.7431 22.0275 4.34931
1 25.2773 9.96636 25.0537
1 3.36166 15.3054 25.2926
1 14.5436 8.661 8.89076
1 19.2708 5.81796 20.011
1 5.10223 10.5533 13.3682
1 1.34323 17.2744 9.99542
1 22.4327 23.8255 18.553
1 7.73739 0.610732 5.65716
1 28.5351 14.3326 5.88928
1 26.6658 19.5678 7.68007
1 9.53164 18.431 9.37833
1 4.46983 11.5121 15.1625
1 16.6302 0.979462 15.3274
1 9.59397 19.0496 11.8679
1 25.049 5.90974 19.4399
1 14.3548 0.803697 29.9548
1 22.8455 7.23127 16.2623
1 13.6024 21.1571 8.13644
1 28.5158 11.7893 10.0906
1 10.2671 16.0635 22.4184
1 18.0562 18.18 11.6609
1 20.3364 28.0787 16.0965
1 20.0402 10.2568 2.14622
1 26.4425 15.1988 19.7877
1 6.08345 7.96805 21.6749
1 21.2339 24.4234 16.4619
1 11.2457 24.6952 6.15963
1 1.11538 9.40769 20.1109
1 17.1183 18.2532 22.1989
1 29.8088 15.8657 17.5268
1 19.6088 10.2551 27.9861
1 28.6175 24.9862 13.8334
1 11.6556 15.0163 15.0503
1 8.43795 5.66814 11.3542
1 18.8654 4.5955 20.6215
1 7.44382 13.8282 23.1746
1 27.5033 9.90468 4.00626
1 5.05788 10.8459 26.6652
1 6.45891 4.42781 16.1895
1 23.9447 11.5272 25.6626
1 28.1962 21.8771 15.4034
1 18.0237 29.1638 1.23376
1 10.2565 9.57963 12.385
1 17.5572 17.4104 28.431
1 27.0287 12.2197 23.3904
1 9.3512 11.4169 9.65817
1 4.00304 5.41143 20.2088
1 12.5216 0.891976 11.4418
1 9.05704 25.3063 22.6904
1 25.6925 28.7515 8.91329
1 11.7514 7.70528 6.12833
1 12.5737 5.53779 7.9994
1 8.14086 22.1478 24.8383
1 9.28818 0.622519 11.2977
1 23.7849 28.0252 10.3059
1 29.2386 16.635 22.3585
1 7.94443 1.00048 8.67218
1 1.13264 7.35148 14.2846
1 3.82618 14.2949 29.2537
1 25.1991 3.17907 2.61115
1 2.62813 1.27657 25.416
1 18.3553 13.7937 19.9221
1 14.6851 6.11819 21.1387
1 2.53513 5.74561 6.06924
1 28.6012 21.9755 23.3138
1 16.9645 13.5834 11.3297
1 8.10643 22.5406 13.5801
1 10.193 5.65868 9.07952
1 19.7033 17.1313 22.6666
1 11.2691 25.0995 21.603
1 5.7724 29.6925 13.5653
1 11.7438 10.9434 21.0779
1 25.3932 17.2846 19.357
1 24.0451 19.6876 4.97613
1 22.2065 6.71713 2.37205
1 22.01 4.94403 11.6411
1 3.26821 22.1666 7.61513
1 6.93785 5.34312 29.4569
1 25.2924 0.798608 27.3533
1 5.8249 14.2376 25.1872
1 19.5665 29.7142 24.4762
1 20.9586 9.97979 25.2049
1 15.6643 18.014 25.9647
1 23.1295 8.42119 15.469
1 29.3022 3.29523 27.7645
1 27.9374 14.416 29.1013
1 16.2576 9.46087 7.00288
1 28.9805 25.4812 26.5722
1 10.601 14.8317 9.95566
1 9.86061 27.6524 10.746
1 29.9212 12.5293 29.4189
1 7.72143 15.6766 24.5332
1 13.5651 1.00147 10.509
1 17.1269 19.4651 22.698
1 18.7125 5.38408 24.831
1 21.9413 24.5479 7.15526
1 11.0692 21.6504 29.5276
1 10.0428 4.22631 15.9941
1 16.2667 4.42497 28.8839
1 6.11865 11.5368 13.3163
1 17.2895 8.17719 12.7805
1 6.99101 27.4945 17.8267
1 23.4796 5.22958 23.5612
1 8.14861 15.6318 13.3612
1 0.388064 5.94527 27.1598
1 10.5514 23.2514 27.4293
1 27.6363 5.60531 25.9997
1 17.7659 11.465 27.2062
1 22.6201 22.4199 18.1164
1 10.5347 3.84836 20.2951
1 12.1274 11.8404 1.84383
1 12.0753 13.8647 23.0089
1 17.36 14.4994 19.3073
1 9.44502 10.6864 21.1431
1 18.4995 9.62005 21.3253
1 9.61164 8.82836 28.9939
1 28.8882 28.3654 30.4223
1 23.2929 8.16704 22.2044
1 17.6628 16.257 4.63508
1 6.8269 26.0061 21.761
1 3.47698 29.8295 0.627101
1 0.847992 15.9918 16.5132
1 23.6796 26.528 16.3382
1 30.3364 28.7112 12.2105
1 19.6108 24.6338 8.51121
1 22.1852 2.70781 17.8949
1 2.81914 8.03031 22.9438
1 11.9196 9.24385 22.7906
1 7.19965 14.4349 6.34877
1 15.4592 16.7595 28.9671
1 5.80332 12.9905 29.0722
1 29.1295 3.8 1.93733
1 21.4838 27.5314 13.0852
1 24.349 8.97999 15.1927
1 5.65876 13.4232 9.98907
1 14.7479 24.4949 23.1824
1 18.463 2.02872 16.3323
1 2.25496 3.89868 16.6494
1 13.7473 10.3119 3.25754
1 7.776 12.2933 20.9394
1 18.2446 24.76 1.54265
1 29.5666 13.9986 29.209
1 21.2637 12.9904 24.6512
1 3.90019 8.47199 7.04445
1 3.95089 5.97931 5.82068
1 19.6637 7.41837 11.9717
1 9.25645 29.3807 18.7943
1 1.72198 18.7017 10.6191
1 7.5648 16.9648 13.9784
1 8.59423 10.1159 30.1035
1 15.5963 3.58668 4.24793
1 0.47026 26.2275 10.3162
1 6.53105 9.10443 11.8091
1 17.0315 14.965 27.6096
1 3.03695 12.3148 15.9291
1 14.3085 29.7916 10.0314
1 8.15071 20.4899 16.5182
1 25.1643 24.6149 11.251
1 9.21137 10.1036 16.074
1 17.4543 26.7814 0.251078
1 11.4752 11.3441 2.94319
1 26.1221 29.3343 3.55793
1 13.6545 19.8181 14.5041
1 20.6729 27.0741 19.1927
1 23.9962 27.1618 18.6728
1 24.9391 22.8584 1.61263
1 30.0318 8.68284 0.480192
1 21.9338 29.6161 11.2045
1 8.11268 7.04206 19.1069
1 21.6934 10.4293 17.4569
1 24.2429 1.24761 22.4956
1 13.507 29.0828 22.4876
1 15.8052 14.0888 4.52629
1 27.9794 5.68841 15.2978
1 10.5249 3.01346 21.7876
1 24.7406 20.0212 25.8664
1 27.8784 7.48928 9.84402
1 0.163868 7.76532 13.1415
1 22.2661 12.6716 13.0854
1 1.9066 3.04225 24.0019
1 25.6727 5.98774 15.3986
1 21.3803 16.3365 6.3431
1 29.4771 14.849 2.78563
1 28.5021 26.4468 11.2543
1 11.1775 23.7578 3.65967
1 2.47164 18.6878 16.153
1 9.80432 3.63626 11.7915
1 27.8648 24.9452 25.8345
1 3.012 17.256 8.31683
1 2.82038 15.1521 15.4441
1 3.47528 12.0665 1.30511
1 14.3971 27.1699 29.2992
1 13.0577 27.8684 29.1245
1 26.5204 17.0123 5.5988
1 4.93365 17.4318 26.7059
1 20.6295 29.759 30.3476
1 27.9335 8.75283 3.25206
1 21.6926 9.93158 3.80482
1 27.7916 5.61471 22.8346
1 16.9818 29.1576 24.491
1 20.5855 14.2287 3.77625
1 4.44717 17.0986 3.31519
1 19.2567 25.8636 16.59
1 27.9695 23.73 25.1071
1 25.5288 26.0467 25.8402
1 2.6285 14.5949 23.1498
1 22.0875 1.24247 19.6774
1 24.6052 9.69984 14.0095
1 24.9674 6.58892 3.58541
1 24.1727 14.8454 12.2965
1 10.4523 17.3896 7.45803
1 26.8533 12.6263 2.31492
1 6.8394 12.1935 29.6171
1 1.68458 13.7438 23.5102
1 27.0222 0.450396 3.3085
1 21.9272 7.9122 5.72497
1 13.7745 14.6788 19.8523
1 24.7548 9.30677 16.5598
1 26.6622 6.48972 6.24668
1 0.847062 18.7052 11.6629
1 9.672 3.63352 0.611307
1 24.1738 0.902937 4.057
1 14.594 8.69141 27.4062
1 20.9829 21.0584 28.3852
1 9.13736 26.2286 24.834
1 28.0177 6.6028 19.2475
1 1.42555 17.9759 0.159233
1 23.9041 0.919978 18.2895
1 18.4838 14.8728 29.9406
1 18.1223 3.47284 3.84602
1 15.1647 2.12815 26.1258
1 7.41085 24.8428 12.5212
1 24.4319 5.47983 14.8371
1 7.16033 26.6345 1.19775
1 21.8814 28.0486 6.01594
1 12.8826 7.277 10.6558
1 28.6325 6.42685 2.59277
1 19.1488 19.0829 12.0725
1 17.822 28.0327 16.041
1 20.9622 17.5584 11.0744
1 27.7153 9.61139 19.1976
1 1.51184 16.23 10.8174
1 27.6844 23.3814 9.89666
1 20.9329 24.3713 8.29061
1 2.57701 3.213 15.5415
1 6.20913 24.9545 22.3862
1 6.69261 29.2258 27.4847
1 10.9174 6.08019 25.0559
1 4.3363 12.5835 17.9437
1 9.15512 23.685 10.8171
1 4.75448 8.52211 21.5783
1 29.3688 8.42292 21.3148
1 11.0445 11.5128 17.1029
1 3.89744 27.9279 24.8923
1 14.31 5.13763 22.6222
1 12.3025 8.00394 23.3402
1 6.33119 3.57246 26.7189
1 26.176 9.24406 11.2056
1 11.9721 18.2107 28.3713
1 2.58582 0.291283 26.707
1 25.3613 27.7483 29.6231
1 17.2492 25.4009 6.40767
1 4.28123 6.93945 27.0079
1 27.7364 13.5771 12.896
1 22.8621 13.5429 18.1562
1 15.1917 3.77591 2.97696
1 19.4882 6.90932 26.6875
1 16.7482 8.01171 22.2088
1 15.2175 27.3199 26.0029
1 10.2785 10.5748 14.7614
1 1.29411 5.91371 2.84201
1 22.9729 29.3056 21.3145
1 4.09539 8.36727 1.43087
1 28.596 15.8232 6.19537
1 13.3953 10.9219 27.9734
1 9.19789 10.3275 22.5995
1 25.3248 29.953 0.879133
1 14.7797 8.97438 10.3682
1 1.41238 20.6616 7.93286
1 1.71627 17.976 3.33636
1 28.501 27.729 21.154
1 15.5944 17.2549 23.342
1 27.9893 21.9575 26.4549
1 8.18213 27.7328 3.52357
1 3.71583 20.3172 23.9926
1 24.6327 26.2818 20.9342
1 27.7582 14.4798 19.8537
1 12.2844 3.24291 16.8202
1 12.9837 23.4749 21.6014
1 3.67535 19.2166 0.561895
1 20.2177 2.64479 6.63097
1 21.5212 21.1299 2.28371
1 25.5016 22.4558 10.1479
1 6.76222 11.2465 2.6995
1 21.682 14.1123 28.1987
1 12.5611 20.4536 28.2557
1 29.8972 3.92743 4.67638
1 4.13248 25.4291 17.8499
1 10.0185 25.8039 19.8553
1 22.0988 3.66602 8.07451
1 20.1791 25.8486 14.2028
1 29.9006 19.5911 0.948039
1 12.6884 13.7733 29.2543
1 26.9596 10.4046 18.1843
1 25.5552 16.2967 24.2513
1 2.98341 12.2535 6.82449
1 24.4183 22.2921 29.4775
1 5.20988 24.3401 27.5344
1 29.4767 13.3361 6.11552
1 10.9959 3.03546 11.6956
1 15.0217 16.7737 20.5694
1 24.9395 27.1468 19.868
1 26.7546 12.2792 11.317
1 5.29755 14.0288 1.08281
1 3.37323 10.8314 19.6576
1 17.0013 26.0464 18.8701
1 5.07286 3.09308 4.33701
1 26.6143 27.2944 7.09957
1 7.80843 24.3308 5.51968
1 23.1079 4.16175 25.9723
1 1.23129 7.94572 6.21477
1 3.54636 9.63986 29.7965
1 21.1436 28.9445 12.3222
1 19.6748 27.4158 28.8822
1 9.86932 18.8884 16.2421
1 11.5372 13.1438 12.4908
1 15.2956 18.1999 24.386
1 22.8815 16.3762 4.45112
1 14.8807 16.4145 15.7089
1 9.23797 29.7927 17.5603
1 19.1392 21.1007 6.83333
1 1.11242 26.7391 24.8414
1 20.9577 20.2945 17.0278
1 25.1216 15.3269 16.4746
1 19.3311 24.6347 28.562
1 19.3918 17.1749 26.0874
1 30.0161 16.8976 18.3479
1 9.76241 25.8432 12.731
1 19.113 22.4151 9.02844
1 18.1728 12.2538 14.2787
1 30.3363 20.1258 8.52563
1 17.3596 25.077 2.82625
1 10.5515 15.9531 5.48456
1 19.3589 12.6126 12.5295
1 18.4541 27.2179 24.1008
1 17.7878 18.352 9.48096
1 28.3124 20.8202 16.3578
1 22.287 18.9567 25.8521
1 10.5589 1.70443 17.0164
1 0.700954 29.4989 17.3073
1 12.3851 25.2297 5.14815
1 1.61936 28.985 14.1289
1 27.5226 3.98064 14.9597
1 28.7114 3.13555 4.4642
1 6.57071 18.5722 18.2453
1 22.4935 16.9927 23.9704
1 12.1545 5.60209 16.9816
1 11.0991 4.36917 17.0246
1 10.1968 29.8837 15.1922
1 5.22458 0.86234 8.94404
1 0.912684 8.09181 27.2843
1 13.3645 3.46404 0.502648
1 12.6167 24.7942 24.2704
1 29.8144 10.5456 27.2291
1 22.246 15.5331 20.1237
1 10.2869 13.3329 19.4195
1 24.0241 28.1938 7.65833
1 0.625087 17.1753 8.9425
1 1.57469 16.6199 3.33743
1 15.6285 10.5815 9.02032
1 9.55998 14.1944 27.5586
1 21.0016 24.5905 19.1075
1 9.32781 23.5693 17.1114
1 6.83026 3.66513 1.72281
1 15.6811 22.374 1.60919
1 19.4162 11.6287 20.1245
1 11.4851 12.6524 11.2971
1 30.193 13.1113 21.8339
1 0.188959 4.95579 21.9423
1 16.3514 26.9119 7.66633
1 21.3885 10.5038 2.42958
1 21.6428 24.3917 4.77549
1 22.2225 3.58789 24.8871
1 1.95361 26.3257 21.8272
1 1.62339 9.48104 28.6543
1 14.4553 25.8263 16.4056
1 5.88737 22.9829 27.5005
1 8.08492 24.7651 2.69671
1 14.3769 5.25214 12.2366
1 13.6743 19.0433 17.0401
1 7.17962 14.7747 3.72967
1 3.62026 10.037 8.93268
1 7.52706 17.2585 2.88901
1 20.2297 18.11 16.0896
1 18.2938 10.3066 13.0337
1 7.32997 2.07805 14.3276
1 12.4844 29.1672 29.1517
1 18.4577 29.1421 6.44559
1 8.0664 18.9659 21.8121
1 29.557 1.80931 8.27035
1 9.75208 27.8057 21.4754
1 15.3492 21.181 2.44473
1 10.4316 19.6947 28.0463
1 10.2378 26.781 2.43286
1 28.5343 6.56046 8.86437
1 18.1762 1.90305 23.485
1 11.7473 28.7132 16.6123
1 12.2925 10.3025 23.7205
1 16.9937 5.75602 8.40706
1 8.28909 3.76118 17.8338
1 29.2915 29.598 7.41263
1 14.0273 14.8824 27.658
1 6.54442 23.3981 7.21744
1 4.67208 20.587 14.9157
1 10.5237 1.00204 25.4512
1 29.1442 11.365 29.769
1 2.42247 19.0846 0.998015
1 20.2088 10.8198 29.1848
1 5.20819 25.5449 21.6052
1 13.5453 18.3539 22.0186
1 4.20084 20.1982 28.5315
1 7.84371 11.9793 27.347
1 20.0255 26.2868 7.4217
1 6.00663 5.6724 4.15897
1 4.45391 16.1406 23.287
1 24.8534 21.0783 10.6783
1 17.3064 11.0637 28.4196
1 9.74579 26.5056 9.95406
1 20.4708 8.0444 29.0532
1 11.1521 17.151 28.4859
1 18.6521 25.1748 17.7772
1 16.6625 7.23607 24.9418
1 4.4306 15.125 18.9206
1 14.7211 3.13292 5.04457
1 17.8206 13.6536 6.80038
1 3.63655 3.35515 11.6263
1 16.0042 13.3579 9.56219
1 24.9181 7.72099 26.2965
1 6.03936 29.3015 24.9532
1 16.4123 21.0057 17.6272
1 15.0396 18.8892 17.6072
1 13.8055 27.7812 17.1071
1 18.9951 14.1325 12.4396
1 5.03247 6.79249 12.2045
1 27.7638 23.9317 5.35357
1 5.2172 1.02623 7.40193
1 15.5516 19.8668 1.83576
1 21.5218 12.5485 29.9721
1 15.9991 3.28343 16.9074
1 10.809 8.05033 9.37137
1 4.07063 0.82914 22.215
1 9.00189 24.7775 6.61016
1 7.24432 8.64417 21.0024
1 3.33211 13.2223 2.16606
1 19.2388 29.5341 25.8353
1 18.7634 17.2523 29.2678
1 14.1351 1.87001 16.1242
1 10.8491 0.261363 3.10253
1 0.543778 11.14 9.33673
1 24.7582 10.3394 8.08845
1 16.5634 22.5765 19.8714