4096
Atoms. Timestep: 960
1 4.84072 12.0867 15.4349
1 17.789 2.60722 10.1195
1 22.3367 18.6287 21.8459
1 20.6947 12.784 13.8716
1 27.7188 4.07767 17.1177
1 10.0714 27.7375 19.3954
1 24.3368 22.6851 17.2463
1 19.9564 22.3291 0.697642
1 3.65984 8.77004 14.012
1 7.68782 15.941 9.13729
1 11.8172 14.651 11.9416
1 2.56526 1.20808 22.4822
1 17.2119 17.5144 4.6257
1 24.2244 29.3568 11.2199
1 0.0712323 20.7316 22.1414
1 29.2066 24.3391 27.7733
1 20.0599 26.7381 26.185
1 3.37123 24.2894 12.091
1 19.663 25.3468 9.02103
1 22.3482 10.7867 15.0163
1 5.98378 8.66713 15.6528
1 28.4806 29.9496 27.2526
1 23.9233 3.72015 30.2652
1 8.9609 1.00235 19.2071
1 11.9804 12.8117 6.3455
1 1.76802 8.35333 11.3265
1 20.8177 12.7345 21.6226
1 28.5146 29.259 9.98707
1 15.8567 30.1722 1.30005
1 27.9039 7.94563 18.0718
1 28.488 16.5022 8.95114
1 1.3677 29.4561 6.11491
1 20.6501 5.95728 4.86052
1 29.2789 8.64245 12.1815
1 17.5122 5.37025 24.9399
1 2.69765 8.08889 0.633138
1 19.0934 18.2655 11.7164
1 4.68579 27.4592 2.31327
1 25.2722 20.1536 3.62808
1 28.5954 9.92065 11.0739
1 4.30054 20.5635 7.9156
1 13.1892 20.2332 21.3028
1 7.23763 10.2754 2.64632
1 9.8657 19.3289 28.5411
1 12.8535 18.555 23.4595
1 3.62681 11.1845 18.3497
1 13.0922 27.8972 1.25163
1 10.4003 8.28581 2.5656
1 10.5784 17.5554 14.1809
1 30.1625 11.3901 30.1887
1 5.92713 14.8698 26.5435
1 20.6673 18.9661 9.02892
1 9.12375 12.2381 9.52177
1 9.7917 26.191 11.1148
1 23.2026 2.49806 16.9093
1 25.4618 10.8609 6.72446
1 27.6607 15.7108 6.31286
1 8.90912 21.4829 10.5747
1 29.1285 0.773029 20.6263
1 28.1289 5.59973 1.65035
1 5.03466 4.53904 19.6321
1 16.2677 12.0196 1.85423
1 13.0282 28.6971 20.5567
1 18.8005 23.1078 6.95631
1 24.1662 11.3084 21.9685
1 12.0831 21.1584 24.3451
1 20.0732 23.7978 7.03526
1 26.6209 16.8955 11.0747
1 29.6582 7.82385 23.8807
1 8.70393 23.6761 12.4135
1 27.3489 8.67724 22.0901
1 4.48823 1.0919 6.51827
1 28.6517 23.1395 1.55022
1 3.21919 5.09765 3.06716
1 28.1472 17.0624 10.313
1 8.48372 8.4709 11.9883
1 28.2995 11.1879 11.6738
1 21.485 18.4508 15.2225
1 1.94519 26.4791 8.6495
1 -0.00926581 4.258 26.6446
1 12.9344 27.5322 6.03873
1 13.335 20.1566 10.208
1 7.53311 25.1165 28.0995
1 16.9652 29.8321 6.82068
1 17.6303 28.0204 16.9549
1 16.8004 7.59473 10.7153
1 19.9801 11.4587 11.2389
1 20.9421 10.4597 22.1466
1 1.31885 3.96759 26.0038
1 1.99339 1.35065 6.87646
1 4.20251 28.9649 5.77834
1 12.344 10.5699 16.2789
1 23.3265 17.9173 14.2825
1 3.86775 29.2081 28.0803
1 14.101 1.98067 2.84354
1 4.8522 13.4212 8.69944
1 12.2945 19.2266 17.6239
1 25.8076 12.1304 17.225
1 29.4834 26.9279 27.3277
1 11.6835 21.5898 6.08901
1 28.0922 19.4818 11.0629
1 15.5803 7.24856 25.8854
1 22.5185 23.8805 14.2304
1 13.3818 17.1387 16.5515
1 28.7692 11.2518 21.444
1 3.95847 7.87297 29.6692
1 25.0388 14.157 26.5228
1 18.0211 14.1922 29.6026
1 8.56635 18.5344 15.2355
1 21.7439 16.551 16.4074
1 25.783 25.5361 3.5498
1 13.2306 24.492 0.707575
1 12.4304 11.0542 25.5334
1 1.47938 13.7848 29.2258
1 10.5511 4.58867 23.2821
1 15.868 14.5444 4.01146
1 24.642 7.58941 27.5113
1 16.7423 26.3838 4.25646
1 12.7368 12.59 9.13181
1 14.9579 16.2211 2.16588
1 4.23434 26.8324 21.9677
1 7.56185 4.58781 18.4862
1 1.17532 15.4876 26.6035
1 9.87335 29.9713 7.82795
1 11.883 20.4582 27.7498
1 13.5964 8.98656 14.0381
1 10.1906 6.86991 29.3898
1 9.38085 2.17403 21.7723
1 20.8274 19.9551 0.232143
1 28.7916 3.18027 14.6357
1 4.33587 21.1843 6.49984
1 20.0395 29.9491 29.6925
1 15.0519 4.5355 18.9696
1 14.8891 3.13529 0.973628
1 20.9367 16.4692 11.7124
1 8.95973 0.548609 26.4152
1 30.081 12.3468 23.2088
1 8.66526 16.7191 29.3078
1 26.502 4.65983 4.54233
1 17.3139 24.3772 15.3659
1 20.0864 16.4681 14.0968
1 29.5134 20.8053 27.3032
1 16.0952 9.35412 13.116
1 16.8263 4.27628 25.3245
1 12.5055 12.4505 26.255
1 4.6331 28.1828 25.504
1 9.05349 22.049 22.5457
1 10.2933 11.472 9.33851
1 10.9462 27.1549 14.6758
1 13.7682 28.7705 28.418
1 28.823 5.51737 28.2577
1 11.3845 26.7231 28.7871
1 15.787 29.6126 20.4624
1 23.8926 2.49957 4.49606
1 17.4746 4.09751 15.1609
1 6.82398 14.4064 17.4167
1 7.30817 3.94585 0.462512
1 20.877 8.28739 25.5626
1 21.3627 14.9535 16.6437
1 13.1407 3.14004 25.7891
1 12.4193 9.50903 8.56581
1 27.5761 13.1367 6.16628
1 6.69043 22.0261 22.2677
1 0.971377 12.3351 26.7366
1 23.6981 28.8552 26.7672
1 9.8514 1.5271 27.1244
1 27.573 3.32781 13.8091
1 17.0819 5.51529 28.7435
1 21.9137 10.6298 4.93313
1 1.4293 16.0805 21.9317
1 19.5115 0.588066 9.44212
1 22.2342 10.0783 3.30191
1 12.3568 10.8398 1.13025
1 2.98008 8.27242 23.9553
1 21.47 0.904642 8.81948
1 7.5148 13.1231 25.7293
1 20.8792 18.7061 13.2257
1 16.1911 10.6526 24.0458
1 4.06312 2.19122 1.34642
1 27.0487 24.2042 6.57086
1 5.87363 28.863 18.4713
1 26.4948 29.7562 22.813
1 23.0023 9.10462 18.7969
1 19.9028 0.403499 11.7642
1 13.6691 16.1437 24.2619
1 25.2956 8.07906 7.65568
1 26.907 28.4186 16.5887
1 21.409 22.2011 12.3303
1 24.7155 9.67501 9.85769
1 21.6731 3.56186 19.3551
1 20.4683 10.492 28.8514
1 11.674 14.4023 1.91603
1 17.2524 14.6796 7.68409
1 22.423 8.33649 0.735428
1 24.7047 21.6466 24.2441
1 4.87276 14.1702 12.1103
1 27.0619 7.06631 26.1527
1 12.7918 9.67044 9.93547
1 7.81812 12.0311 14.9641
1 9.40524 18.2484 13.854
1 16.6793 17.7373 15.6167
1 25.8065 19.4765 23.9495
1 19.3791 12.5783 0.503222
1 11.3655 5.13016 27.9159
1 29.7363 1.65628 29.808
1 14.4737 1.87845 15.2196
1 23.2046 23.0226 2.03072
1 15.2507 15.6124 6.26129
1 7.42237 16.3727 14.4406
1 1.90554 23.4401 2.2918
1 27.9165 11.6529 15.5788
1 20.452 20.8238 15.8108
1 3.24477 26.1149 3.59624
1 0.303739 25.6892 23.5789
1 12.6425 7.85476 28.1408
1 29.6727 2.66346 5.01615
1 7.3083 10.6317 13.0605
1 2.3823 14.2915 18.9161
1 16.6552 29.4145 2.64293
1 12.981 19.0116 11.3533
1 13.4649 8.78312 20.723
1 8.51097 16.1132 27.0874
1 14.1295 19.7244 14.9434
1 4.57758 10.8786 8.09544
1 5.16834 12.4884 24.3003
1 11.4235 16.8607 25.2096
1 20.6803 19.4076 26.7075
1 28.3864 19.0438 19.7165
1 19.2181 8.96119 6.43677
1 1.20382 4.76528 14.512
1 13.0395 22.1195 13.9346
1 24.0398 4.81939 4.8985
1 14.0503 29.9884 25.9158
1 19.9476 11.4811 21.5966
1 5.39312 29.8573 15.8196
1 21.6255 2.41743 4.53482
1 10.5308 26.8744 3.29177
1 10.256 26.8609 26.5038
1 9.36047 30.0935 15.3568
1 24.4792 11.1512 28.3524
1 10.4682 25.2062 16.815
1 27.5632 7.89586 4.07738
1 23.1741 1.06514 24.7905
1 9.69403 2.94716 20.6553
1 0.308728 27.6162 20.8273
1 15.3538 14.1556 5.51829
1 26.1948 18.292 10.968
1 26.3138 11.0324 21.7724
1 6.86751 8.48034 7.895
1 6.55384 28.3433 23.7619
1 7.36653 11.9297 4.4862
1 3.05946 11.6471 19.8271
1 17.8289 29.0561 2.3296
1 23.1252 5.69892 30.0874
1 23.6892 5.60794 12.004
1 20.5114 27.4276 17.45
1 2.02579 1.05176 1.58586
1 21.6281 11.7007 15.5663
1 11.2365 28.8409 13.134
1 22.8508 8.84602 17.2914
1 16.1639 12.7303 5.5326
1 28.1524 13.7214 5.00092
1 21.5746 28.425 29.8779
1 6.57061 1.85164 14.3825
1 17.1105 2.51821 7.97493
1 2.38953 6.38532 13.3011
1 12.1967 27.8996 10.0182
1 12.6983 13.5371 1.46387
1 29.2492 28.4926 4.98865
1 9.28928 24.4881 2.28382
1 2.39674 9.29833 19.5271
1 4.30083 29.4825 15.06
1 7.63067 7.96424 30.2955
1 23.5863 5.92725 9.10006
1 5.10946 3.67021 27.3786
1 29.6222 9.21033 26.9844
1 10.8222 11.8813 7.94226
1 17.2002 8.35452 13.7744
1 5.78372 16.5664 30.1936
1 18.9639 22.4749 24.1383
1 8.4537 22.3511 7.83656
1 13.1848 18.4062 14.5675
1 1.54688 11.8747 14.3395
1 28.3108 8.57328 14.9643
1 28.773 7.42379 1.11367
1 0.842207 27.8711 24.6682
1 19.7076 27.9294 15.0508
1 11.2441 19.5838 14.0208
1 5.92915 24.5178 14.6898
1 20.5151 20.4044 29.2706
1 0.875423 1.10276 10.3505
1 3.55445 29.381 25.59
1 13.0916 17.8768 2.50236
1 29.314 12.2172 19.465
1 19.1546 29.8277 16.447
1 0.703093 2.17668 5.15455
1 20.4195 1.91262 16.9513
1 22.7818 13.309 24.5244
1 11.0994 25.558 3.71403
1 27.7853 10.8995 22.3161
1 1.36719 22.7508 0.945799
1 4.17948 12.6681 29.8387
1 8.92294 21.4475 0.935625
1 12.3164 17.6924 25.7364
1 18.8681 9.35756 26.8363
1 5.53099 21.4995 17.1183
1 27.9312 20.768 13.9335
1 15.6968 14.5911 28.774
1 24.8511 29.2643 29.3729
1 27.7601 8.05421 2.67381
1 19.7788 19.0201 17.1715
1 26.8883 15.3836 3.76594
1 0.359003 5.9836 11.4397
1 5.9031 25.7764 5.78516
1 26.8749 13.677 12.7299
1 22.5225 0.0447962 25.5218
1 12.1693 1.02698 15.6589
1 15.7628 9.67971 14.5677
1 14.1236 24.1294 18.8751
1 3.52284 24.0427 9.427
1 12.509 19.0738 13.6425
1 10.1523 14.8378 13.891
1 13.6945 14.4731 22.2649
1 6.17594 27.9159 6.18184
1 11.5407 18.4882 11.0215
1 24.0077 16.665 6.37245
1 2.09031 12.7186 0.463817
1 11.5888 11.3979 4.20206
1 25.2822 26.2423 11.7987
1 26.3461 15.5021 6.4203
1 23.8753 22.8673 4.37539
1 27.1007 30.2103 5.4177
1 5.67203 14.2603 29.2585
1 15.0653 11.3373 19.6714
1 18.9176 12.4127 11.2214
1 24.2945 25.528 1.13109
1 25.7739 27.9225 21.2166
1 29.4807 25.3295 4.55115
1 9.61919 5.76571 29.3181
1 4.16631 12.0182 28.2447
1 9.47551 0.087801 25.1407
1 14.5276 22.0732 26.5143
1 13.2595 23.5354 16.268
1 23.4826 29.8532 13.9159
1 10.3343 2.44949 24.1431
1 25.477 28.8174 13.1882
1 28.0719 14.4076 7.27372
1 13.3572 19.3922 12.6116
1 27.4161 16.0036 27.0846
1 0.282183 19.4248 23.0869
1 25.8778 2.48059 28.216
1 7.4689 25.2873 19.1648
1 3.53624 7.01514 8.65832
1 0.522275 26.4007 28.2903
1 4.23991 11.78 25.493
1 1.09954 11.3897 15.7074
1 5.29223 0.882255 16.5107
1 7.92884 1.70758 8.82369
1 9.00979 29.3902 2.66519
1 25.7453 14.8425 4.38277
1 10.8544 20.2634 12.7756
1 17.8443 8.29866 5.48185
1 4.86635 3.37587 1.23789
1 21.705 15.0024 30.4752
1 15.5142 22.864 11.3988
1 7.64451 27.5746 19.1447
1 5.34526 3.1529 4.35655
1 25.4948 12.7538 3.19802
1 7.3082 11.2909 21.9406
1 5.50602 4.58278 6.96673
1 9.56924 27.2127 10.2062
1 22.4883 0.0935857 9.25447
1 9.25245 16.118 9.12716
1 15.3717 0.538538 8.01413
1 25.8735 8.21304 15.1801
1 2.94544 26.8738 4.68677
1 1.73148 11.4819 8.98643
1 13.0716 26.7868 23.9218
1 29.8294 16.6203 5.37007
1 21.4966 7.16284 9.9711
1 27.2717 14.5067 27.7841
1 20.2942 8.44903 4.06559
1 24.1792 13.2479 11.2557
1 24.5899 1.49362 14.0041
1 20.0623 14.8148 1.88318
1 13.5545 9.78175 16.6631
1 24.5192 29.7439 3.62274
1 2.63743 25.218 -0.163856
1 25.3489 10.6225 22.5178
1 1.78265 21.1816 5.14416
1 15.6928 5.03901 3.16679
1 25.1315 7.70188 3.28736
1 3.98767 22.3623 19.7453
1 16.399 29.7296 22.5237
1 19.3566 13.7585 13.5149
1 17.1072 28.6191 0.549964
1 2.54581 14.7412 7.63238
1 23.2853 17.9845 4.44049
1 3.78559 19.6449 18.7184
1 26.7315 24.8841 2.63096
1 14.1485 27.6968 18.6312
1 24.7238 1.70828 28.0222
1 23.9208 13.5572 23.512
1 18.7244 28.2358 14.0966
1 27.6472 26.9798 10.5396
1 9.20162 29.5703 11.5903
1 5.79836 25.866 7.31524
1 19.5727 12.8353 28.1806
1 4.86359 8.69626 2.7205
1 17.5896 0.969309 19.0509
1 8.87084 9.42874 24.1959
1 28.5818 21.908 2.38445
1 4.69058 7.00572 23.0248
1 2.4433 22.5348 14.9772
1 15.866 23.0322 26.1385
1 4.16799 6.44225 29.5424
1 2.2844 2.61393 15.0816
1 2.21838 29.5639 25.7039
1 25.6295 10.1296 23.7864
1 3.4592 11.8874 15.1487
1 15.405 12.0476 4.37788
1 11.6131 2.22192 1.25815
1 7.7605 6.24413 18.9488
1 7.63662 8.8221 20.4212
1 7.46803 6.16323 7.23243
1 29.2629 22.3907 8.97077
1 5.20702 13.0573 3.8571
1 11.638 20.0296 18.5395
1 21.1806 14.7936 20.0403
1 2.9822 21.7372 16.0696
1 0.90885 26.3193 20.4812
1 15.8872 25.1746 17.5413
1 4.21361 7.83851 21.8643
1 30.0783 15.7728 29.7852
1 8.0702 15.5838 19.3236
1 25.2345 25.6131 4.79257
1 7.70035 25.9229 3.97093
1 14.8222 23.4922 20.9793
1 29.2569 3.24037 24.1549
1 13.3569 15.1946 12.8643
1 2.32044 30.1688 8.42169
1 8.69161 7.71501 0.860616
1 10.0493 28.3663 16.985
1 21.1907 18.0085 27.1004
1 7.84808 7.65164 28.8173
1 25.6274 16.7622 20.0938
1 1.47953 18.3914 20.1757
1 6.50648 26.9489 14.679
1 26.0213 11.6381 9.03975
1 21.9096 19.6075 3.12039
1 29.9527 1.44446 10.7738
1 25.5019 26.1047 0.420493
1 13.1707 5.30835 13.0268
1 14.5089 15.2634 23.2334
1 7.67814 2.29588 18.2884
1 1.67892 19.2406 12.2518
1 10.1492 16.7842 25.6351
1 18.9035 16.7265 17.8487
1 24.3177 10.2562 16.2345
1 14.2615 1.50492 10.5335
1 5.95374 6.22427 11.7722
1 5.06887 13.077 16.5784
1 30.0862 25.9215 29.5612
1 23.2919 9.3142 12.9331
1 27.1829 22.4217 23.4119
1 25.3625 13.0381 21.102
1 9.65271 29.715 0.544169
1 7.46967 24.6421 8.81014
1 12.4702 27.3035 8.4973
1 15.2717 18.1521 18.1567
1 26.0286 20.7148 10.3254
1 5.82648 14.3954 8.97649
1 3.58536 28.3477 12.8112
1 19.7344 23.9889 26.4796
1 7.58625 0.969653 16.2483
1 26.3118 29.8609 25.8862
1 27.6701 1.93935 4.4797
1 0.909023 16.2629 17.0143
1 1.29804 24.0064 20.6499
1 0.725381 13.8125 8.86123
1 5.62916 16.502 28.8841
1 17.7323 16.0027 13.1083
1 18.5948 30.1392 2.84425
1 19.7077 6.30506 20.4987
1 21.5038 26.4122 19.8936
1 3.76192 29.6374 1.41815
1 19.4654 12.7984 9.30691
1 17.0998 1.51936 13.7252
1 2.50519 3.49314 4.4453
1 20.5843 23.7152 22.6493
1 27.7778 23.0289 3.789
1 28.7086 26.3073 26.1252
1 8.96821 6.13367 18.3216
1 10.2346 18.9735 24.1701
1 26.5889 4.79018 9.41405
1 18.7079 25.7226 17.7396
1 16.7932 23.4442 25.2805
1 3.57149 26.7998 2.44614
1 8.064 7.12967 3.10924
1 18.1786 9.72851 28.2369
1 23.5219 28.179 7.53927
1 19.3046 26.6993 7.12163
1 21.9475 20.8841 2.41879
1 30.4489 1.91976 22.4483
1 12.7705 24.7881 15.1196
1 8.92108 5.14653 4.12526
1 11.0327 10.721 27.1659
1 17.2857 5.22436 7.41968
1 14.9465 7.63363 29.661
1 12.5456 7.04302 15.6209
1 14.6286 18.0104 16.9045
1 24.4081 24.0256 21.1527
1 10.7173 7.4881 13.7802
1 1.31322 28.898 12.1761
1 1.98426 13.2079 1.68093
1 6.04705 29.2545 2.94861
1 21.1357 1.05494 21.9612
1 18.5126 15.4078 23.4638
1 8.55477 9.72602 2.87874
1 10.2218 19.792 5.24532
1 24.9226 24.3705 23.923
1 4.38005 24.6256 10.9089
1 16.2513 3.75116 15.0438
1 0.825384 11.392 3.03354
1 14.27 26.6844 9.48995
1 21.0826 8.3838 19.9685
1 11.0268 8.63441 3.91181
1 3.35299 26.2058 8.3184
1 5.19761 30.2338 18.6991
1 25.9777 27.0299 23.9741
1 17.5016 3.10172 21.6456
1 16.0009 12.2789 27.9291
1 13.6221 3.10459 9.10678
1 5.74998 0.438521 0.350513
1 26.0497 2.14016 3.84358
1 24.4461 0.559232 4.65021
1 18.3298 20.1135 3.26245
1 11.8618 22.7703 14.0353
1 1.38964 18.5905 5.1317
1 3.47485 11.5992 11.4318
1 0.651197 20.8489 2.97894
1 8.69342 11.7113 6.2894
1 13.9893 20.9668 5.58506
1 18.4806 20.5942 25.5381
1 15.5856 5.92976 26.7134
1 25.4778 8.66866 27.4986
1 16.4059 15.7946 10.5773
1 1.49469 30.0269 13.1119
1 11.2017 30.4739 23.5313
1 7.56838 26.5475 18.1489
1 8.07111 29.0729 12.296
1 6.44286 24.376 28.5579
1 5.60319 14.3531 15.6863
1 16.3443 28.9331 26.4885
1 5.28393 20.0923 3.68391
1 6.39961 0.847982 15.5532
1 0.17484 5.88916 2.17001
1 28.6058 3.63687 25.3048
1 13.1744 13.6901 26.2614
1 12.4644 0.280462 29.6281
1 6.28857 6.2123 21.3419
1 28.2297 19.482 13.7805
1 20.5139 24.3014 8.3412
1 6.70361 11.4723 9.0179
1 29.0568 12.3157 10.6425
1 24.8181 2.60588 0.357228
1 19.0192 30.3926 10.7366
1 18.2268 12.5356 8.44927
1 20.1009 4.59096 9.16902
1 11.4842 30.5082 10.9614
1 8.55374 9.30151 16.1179
1 9.90761 2.07701 2.75654
1 11.7198 27.7365 6.42954
1 19.0554 3.58754 2.59783
1 25.3401 26.5641 19.1477
1 10.8582 0.828396 4.52294
1 18.8458 13.614 12.1002
1 4.42803 13.8913 24.1293
1 22.1145 22.8445 8.97726
1 24.3221 9.83014 27.6069
1 13.8242 6.45563 29.761
1 26.8343 4.77454 14.4645
1 15.2833 5.31384 13.1896
1 20.4006 4.16286 3.32555
1 4.9631 27.5818 26.7808
1 20.2469 3.85663 10.3565
1 3.61836 10.6667 10.4079
1 15.2789 21.1219 26.6276
1 0.85137 15.1278 20.7258
1 24.4016 17.8274 26.1485
1 20.912 0.818582 18.0836
1 14.2904 22.9419 25.5651
1 20.0677 21.2078 7.85649
1 11.8875 29.8277 15.456
1 7.77699 20.1843 13.2621
1 8.01752 2.44772 28.7635
1 13.847 13.5423 19.8452
1 20.7441 10.9177 17.7645
1 1.35353 28.2664 3.04373
1 21.8843 26.8581 17.142
1 4.38206 18.5038 18.6648
1 20.2795 3.11731 26.5779
1 23.6299 7.4964 25.2494
1 9.68424 10.6805 11.4785
1 7.29147 20.1406 17.3941
1 27.8001 10.4877 5.22391
1 13.2295 5.89493 7.84771
1 2.5506 9.82367 13.5319
1 8.6024 11.5409 22.9376
1 1.39428 25.4202 0.424121
1 20.8673 20.5023 10.9835
1 23.2327 16.7301 0.442318
1 13.0203 7.80983 2.97655
1 0.598012 27.4548 16.5715
1 24.0836 19.0841 25.7621
1 9.06231 2.55255 19.3887
1 25.292 18.9614 21.5316
1 2.42593 3.0564 2.82062
1 29.6946 28.9818 14.3446
1 21.5346 19.887 25.5458
1 26.8616 17.9872 4.42289
1 1.30981 18.2536 7.78182
1 16.3609 3.01797 24.9639
1 21.1581 13.1248 28.2967
1 14.7544 10.7398 17.2515
1 16.1595 5.67685 22.8644
1 3.86888 27.9383 27.667
1 14.6581 19.7469 0.402371
1 27.4414 0.783469 8.42504
1 22.9311 2.91089 21.4501
1 24.9208 0.156992 6.2407
1 15.288 27.6364 9.62226
1 17.2229 21.7009 22.0904
1 10.1116 16.5581 27.28
1 13.5015 17.2169 19.1629
1 8.35671 23.6261 15.1849
1 4.67501 22.8589 28.0612
1 11.2067 26.9864 7.60887
1 3.93137 8.62225 17.9834
1 6.1536 4.94987 26.2704
1 10.9415 14.0701 28.8973
1 21.8143 2.34519 30.4424
1 25.8206 28.8505 8.9781
1 3.24627 15.5732 6.63406
1 3.3446 23.3568 14.2105
1 22.8034 5.13347 4.05762
1 22.3377 15.6456 23.5207
1 29.1083 10.5262 30.2061
1 25.0955 17.2848 3.50987
1 7.63409 20.6905 28.4907
1 21.4358 17.8686 21.0419
1 23.8189 11.3546 11.6639
1 15.5848 0.384043 27.9762
1 27.8874 28.4219 7.38346
1 23.5123 18.4877 8.55183
1 11.6301 24.3261 18.8922
1 11.0735 28.8728 21.7192
1 14.745 19.6501 10.4789
1 13.4893 26.6509 1.76541
1 11.7721 6.7881 14.4651
1 9.53389 28.4105 23.6645
1 6.18964 27.1419 5.02943
1 19.4433 9.38272 28.8898
1 7.01654 15.3407 1.04214
1 15.0162 29.45 28.4785
1 1.0502 20.862 0.748749
1 26.6911 3.44971 20.8773
1 30.2629 6.60671 13.8832
1 12.7155 11.6212 17.9436
1 7.99946 2.01587 23.4795
1 30.3867 18.0143 18.3324
1 24.8357 21.4624 1.10748
1 14.7489 28.3142 20.627
1 23.5348 10.5415 1.11991
1 20.8362 10.2524 9.55967
1 1.94194 19.9032 27.159
1 11.2166 25.6014 11.0418
1 6.56354 18.5302 19.7518
1 8.74327 15.3021 21.365
1 16.7785 22.3057 16.286
1 29.3896 30.1644 7.71437
1 28.834 11.1302 16.6014
1 20.875 2.62453 10.2246
1 5.72662 7.37466 21.1522
1 1.03513 6.53471 27.9558
1 11.9902 30.2261 0.675467
1 18.2526 19.8206 28.8188
1 14.0239 12.9759 28.5054
1 10.882 27.2042 21.2139
1 11.2648 16.8895 11.8074
1 6.77157 19.5235 29.0553
1 29.5338 29.427 0.783567
1 19.9896 20.0397 18.1473
1 13.114 9.92595 7.53889
1 1.03718 21.9899 24.3323
1 2.14277 10.78 24.1486
1 2.88405 7.00593 15.7676
1 25.1097 11.7261 5.58946
1 8.74327 8.22604 2.24744
1 20.5352 19.6241 23.481
1 1.3762 24.2455 8.11211
1 4.98822 0.92062 28.1454
1 19.297 10.07 11.7771
1 25.3243 3.82255 16.6045
1 6.45835 11.9917 25.108
1 4.81658 26.2233 13.3885
1 15.7488 17.6874 9.04454
1 3.66698 28.714 7.26221
1 12.2397 15.2956 5.90986
1 27.5438 9.31137 6.28988
1 7.37519 5.22489 8.22826
1 16.9055 29.0418 21.3509
1 2.26041 29.9842 22.6878
1 16.2442 18.7744 5.23194
1 2.08298 2.05714 4.0827
1 4.36945 20.6572 27.4356
1 5.95319 8.87459 3.99438
1 30.3127 13.4925 29.1067
1 9.09015 6.57028 10.5041
1 26.0483 10.6869 7.92458
1 4.78282 22.3868 14.8354
1 8.48706 4.64285 8.87221
1 28.6104 23.329 20.3454
1 29.7568 25.9971 8.80024
1 21.478 5.95795 22.2198
1 9.62014 0.417346 5.27862
1 8.92815 13.4876 9.00767
1 9.04512 15.5266 25.1856
1 11.1181 9.26628 5.92428
1 30.3347 4.55783 19.8368
1 14.8872 20.0905 24.0588
1 17.7394 11.0912 15.0011
1 20.8482 4.04261 18.3522
1 19.7917 29.1565 23.3251
1 1.44206 21.2026 7.65867
1 12.0539 10.0613 26.5006
1 29.6815 5.41339 10.474
1 16.1127 22.4315 1.32777
1 18.2661 2.12626 13.0468
1 17.2609 23.3642 7.39645
1 13.4559 1.80659 16.3369
1 2.85102 26.6104 29.4522
1 7.07196 0.585788 29.2234
1 1.24573 30.4347 16.6833
1 28.2262 21.1814 16.3245
1 7.06128 18.4778 15.3671
1 1.76501 29.8384 21.2815
1 1.21203 5.36683 20.2537
1 16.96 22.2545 18.4118
1 3.84915 6.59109 13.029
1 22.0869 9.62866 10.4314
1 21.577 5.09225 25.7339
1 14.1447 11.7771 18.1114
1 18.5365 10.573 23.0671
1 27.7783 29.1736 22.7554
1 9.78468 9.44359 21.8526
1 0.586724 1.90615 27.4676
1 17.248 20.0946 8.60213
1 27.5272 5.24555 18.1391
1 13.8641 3.95614 26.5921
1 21.2159 17.0386 29.4783
1 18.1523 15.5619 30.1977
1 7.59139 14.4965 4.86868
1 20.5063 8.01489 12.2705
1 22.7919 6.15089 22.9968
1 7.27143 19.5804 21.8107
1 2.76748 0.81136 4.26745
1 11.0169 28.4872 3.61245
1 24.5184 4.21338 10.0659
1 1.65739 23.3443 11.0018
1 29.0374 1.41549 14.6304
1 7.66239 5.93085 21.875
1 15.9341 16.6075 26.8567
1 5.70362 5.24813 5.697
1 8.91887 23.6067 17.699
1 17.1132 15.445 0.754942
1 27.1272 9.9533 25.8067
1 2.84714 15.9843 22.2679
1 7.95127 20.4869 10.1498
1 1.67761 10.2198 26.0049
1 9.18033 15.9176 20.1807
1 15.0205 8.08796 15.9086
1 9.08244 10.7622 19.3803
1 29.7113 2.7925 8.92286
1 27.8269 9.89878 10.082
1 20.9137 6.31108 13.5622
1 13.0522 19.2279 20.149
1 20.4808 9.33938 17.1983
1 5.38333 3.73799 18.8216
1 0.524858 12.2019 7.03181
1 20.8607 27.5172 5.40478
1 11.0458 21.133 15.6428
1 10.9215 7.1975 17.0211
1 28.5395 17.3945 16.6081
1 29.8413 9.10904 30.2261
1 1.2157 14.9271 8.27652
1 23.7569 18.3852 18.8481
1 29.7881 1.106 19.4206
1 27.0595 6.82629 12.0601
1 2.09055 20.9772 10.3198
1 9.57927 3.20309 18.233
1 24.7456 13.1817 29.9615
1 21.4428 14.1831 27.4299
1 22.0054 22.0433 25.3998
1 19.6603 16.4231 4.55874
1 21.7481 9.74389 19.5595
1 13.9125 22.0103 2.20837
1 27.0985 14.9145 14.7339
1 29.4856 19.5295 6.99575
1 30.328 26.1574 3.94932
1 2.60248 6.76177 7.7388
1 15.768 6.91727 22.0513
1 17.3433 18.6528 25.6111
1 4.32006 0.585585 11.9426
1 24.2909 19.7932 22.0321
1 20.2889 15.0364 13.8575
1 8.31293 20.1553 24.8075
1 29.77 27.9488 24.3802
1 10.0037 15.7071 8.01232
1 7.25863 12.2233 20.6981
1 14.8556 14.1522 26.4739
1 13.5729 5.90936 25.362
1 25.9129 24.4252 14.5074
1 23.7143 10.2972 14.9516
1 18.7536 3.58719 28.7218
1 3.70441 19.5616 29.4982
1 23.5952 13.3496 26.8195
1 21.8816 2.50593 28.8099
1 15.0501 2.46003 2.19469
1 8.00954 15.8586 28.5481
1 27.8393 10.5999 7.25715
1 26.312 5.74157 21.4052
1 1.47758 28.4066 26.061
1 1.99787 15.0574 29.6337
1 27.6596 7.7043 27.1884
1 28.0115 23.19 14.0261
1 8.82958 8.52863 21.2608
1 6.31946 5.51519 1.98849
1 17.2731 18.296 16.7197
1 10.6 15.1463 16.8923
1 2.15038 29.0042 7.44296
1 17.5826 19.2893 23.4466
1 11.5673 6.88688 21.0281
1 5.67606 22.3166 23.2428
1 0.655992 29.5749 27.9851
1 15.7103 13.5659 18.8856
1 30.0388 9.46413 18.2811
1 29.0662 23.0631 28.1491
1 20.6214 5.27048 17.71
1 29.7302 12.2506 28.6581
1 13.9993 5.07459 29.9784
1 15.6319 17.8047 7.62053
1 2.24734 8.11264 7.00546
1 21.7521 26.4534 14.319
1 9.02446 5.11476 1.82864
1 12.5257 5.42122 20.2673
1 28.6554 29.6304 13.5923
1 6.38476 27.4032 20.3154
1 16.2819 12.9778 24.6214
1 21.9161 9.95511 11.9789
1 7.36472 25.7772 24.684
1 5.23644 13.9798 27.8912
1 10.4614 23.7944 21.2034
1 18.064 29.9506 26.3033
1 9.40724 12.2642 1.01009
1 29.7583 29.8401 21.3153
1 6.95065 11.3371 19.247
1 23.5463 14.1464 3.20492
1 1.91928 29.2034 10.6712
1 19.5525 6.39261 13.4536
1 12.6491 4.43043 30.1765
1 19.1682 23.634 3.43382
1 3.21182 22.6229 9.09178
1 21.0342 18.098 7.96728
1 23.8925 1.1137 2.12688
1 11.5962 30.1744 13.9419
1 10.4817 29.5913 2.66381
1 1.53969 25.614 6.22492
1 13.097 17.7306 20.7622
1 23.3436 6.67983 7.82428
1 21.2001 12.9995 14.981
1 1.67285 5.43239 29.1974
1 6.54222 28.6894 22.4611
1 27.8846 23.658 23.0176
1 1.23485 7.54329 9.41741
1 15.2085 25.1602 14.0747
1 28.0241 20.9678 21.4237
1 25.6911 11.7472 26.4032
1 8.36451 18.6796 25.3627
1 9.93835 11.1495 29.5561
1 29.9923 29.5828 8.79885
1 4.62584 8.43978 26.7903
1 11.838 15.7595 9.58435
1 29.0079 12.0081 0.75054
1 5.76964 17.0489 9.62049
1 5.31 6.24848 1.54249
1 16.967 4.01977 27.0685
1 2.26019 14.7853 20.3483
1 2.99894 2.63067 27.3704
1 12.2199 6.54126 5.76718
1 23.2968 19.2849 21.1584
1 24.0949 23.697 3.03041
1 9.36235 19.6937 29.676
1 1.89805 12.7358 6.32388
1 14.4554 4.4692 21.7438
1 9.9707 19.1893 22.653
1 4.97547 15.8725 26.01
1 3.65333 18.3181 8.86758
1 3.16427 10.1483 20.2338
1 1.80705 19.8945 15.7687
1 3.73724 1.1066 28.9288
1 17.6553 24.2403 19.2907
1 1.12296 2.04816 13.9401
1 25.0725 11.3843 24.3502
1 18.5951 1.17236 2.18609
1 1.88813 26.5809 17.9331
1 12.4348 23.9252 6.9777
1 23.7912 9.99659 26.3499
1 0.866739 5.15875 5.89383
1 29.1471 22.6534 29.8122
1 18.7226 24.4824 25.5461
1 30.1029 8.16003 0.757578
1 15.1994 18.2687 10.1104
1 27.8609 16.5689 14.5114
1 5.02298 19.7155 24.2606
1 4.26493 24.7613 19.1909
1 3.21455 20.7581 2.90648
1 4.46163 14.2568 1.18705
1 25.8799 30.1861 1.17427
1 17.998 7.86796 29.1821
1 6.88886 14.2946 29.9443
1 23.2864 11.2737 7.16237
1 15.2797 4.49993 22.891
1 26.8682 2.08825 7.03944
1 2.60957 12.1592 22.7176
1 29.3228 17.4304 24.0521
1 0.921152 20.2563 11.1413
1 3.69931 10.0685 21.5434
1 30.2787 13.564 3.35619
1 4.53965 5.29925 17.1131
1 11.3939 15.3507 14.7055
1 22.2563 11.4766 12.1558
1 13.172 25.4293 12.6844
1 14.5056 17.3106 30.1985
1 13.188 20.8219 2.0051
1 26.7643 7.92642 23.1298
1 17.1972 21.8922 3.69891
1 21.4813 16.813 23.4567
1 28.8973 21.3617 14.8848
1 21.8995 2.00517 16.3818
1 27.4305 16.882 1.77353
1 9.44142 20.9647 30.0363
1 1.04907 17.2266 7.03678
1 17.3506 12.1912 27.5142
1 17.6326 20.2977 22.1991
1 9.51862 19.3065 27.2849
1 4.95952 18.8127 10.8882
1 10.3999 3.21044 29.1185
1 8.48192 16.5201 16.5466
1 6.32631 22.5248 13.1288
1 24.6379 5.34381 28.4325
1 28.9242 8.91271 17.4385
1 5.97224 17.064 17.9368
1 19.9746 14.4841 16.8207
1 22.189 28.8745 28.5072
1 26.24 0.783731 20.328
1 9.35563 3.70324 11.458
1 1.48839 0.299229 24.7106
1 26.9878 19.152 24.4222
1 21.1283 19.1348 10.3233
1 15.4194 7.3403 11.1274
1 3.75944 26.7636 12.5175
1 23.6885 3.74027 16.6846
1 9.79563 21.4528 13.0304
1 9.60534 24.5085 28.4209
1 19.4162 2.44962 18.174
1 29.5177 14.9447 25.1391
1 19.6133 25.6638 13.2709
1 14.828 27.5845 21.9447
1 4.53071 24.6284 15.3958
1 7.94687 5.77948 2.60787
1 28.8955 10.7927 19.8193
1 23.4381 19.4248 0.681699
1 18.4564 26.4574 29.7225
1 22.4336 13.7807 2.3104
1 7.60155 4.38471 11.6091
1 4.91896 3.79432 9.0599
1 26.2497 24.0996 17.2151
1 11.1535 9.13526 29.9131
1 7.83812 3.6615 29.3104
1 0.88465 29.811 14.3436
1 2.86802 9.91255 28.9119
1 6.90105 0.758198 20.1997
1 25.7836 30.2303 23.7781
1 9.64137 12.7694 16.7934
1 17.619 5.39617 11.5714
1 21.5703 12.8887 18.1431
1 3.90908 9.80445 15.954
1 15.9704 5.52442 18.7848
1 27.5757 15.2318 17.3468
1 1.13135 12.1464 11.8486
1 12.1334 9.22559 10.9739
1 4.12112 3.81741 16.4747
1 24.903 2.50794 1.8303
1 19.439 24.9899 5.08042
1 6.24708 3.63329 1.12618
1 4.76171 2.57476 18.3515
1 2.67544 15.3506 24.5993
1 23.4278 30.5698 21.0721
1 11.2443 4.9296 17.04
1 15.9141 8.34911 25.2752
1 14.845 24.9402 20.5321
1 0.527392 8.44827 16.4194
1 3.14006 11.1961 3.20197
1 13.8849 15.9305 16.5076
1 10.1026 9.81406 14.3056
1 10.2427 6.20061 25.9091
1 12.4826 9.92206 21.5274
1 11.6185 8.89739 24.7468
1 2.21448 27.6108 14.8644
1 22.7332 14.4907 27.49
1 21.9936 21.3232 4.8665
1 15.0981 29.1594 10.1752
1 2.58461 18.169 0.735137
1 13.1064 19.271 6.86016
1 13.2719 18.005 27.8489
1 19.7015 3.03961 7.17906
1 19.3966 16.8373 20.0913
1 14.7945 1.08701 6.90433
1 24.501 26.9576 15.1677
1 6.31852 5.30361 15.4165
1 6.45527 7.30581 14.8087
1 11.7763 21.1382 1.83447
1 4.43715 17.1539 24.0543
1 29.6004 14.7448 11.0256
1 8.38493 13.9114 19.4433
1 29.1393 28.7785 25.1991
1 25.4293 17.4737 21.676
1 10.2494 22.1301 26.6526
1 28.9631 16.2594 1.56106
1 11.4029 1.63408 11.4101
1 13.0945 2.02796 8.46195
1 15.7214 1.19154 13.2894
1 7.56991 6.15242 24.8515
1 18.1891 18.3074 14.2788
1 30.2026 14.3954 21.9309
1 13.8866 28.4275 16.2478
1 8.64775 19.1207 21.5517
1 23.774 22.8187 18.7388
1 21.7386 13.5636 6.62216
1 3.98766 16.9398 8.68899
1 24.9969 6.01818 11.1124
1 15.5743 2.6677 15.613
1 0.894664 21.8757 12.9368
1 16.746 4.23801 6.56289
1 15.2816 4.54318 0.364882
1 16.4731 27.7606 13.3937
1 5.44415 6.62978 28.5422
1 19.1214 21.3578 15.5893
1 19.1006 20.9282 29.1439
1 30.0998 0.222452 22.6571
1 22.5433 7.33494 24.1839
1 13.4193 25.0062 4.34533
1 3.24953 20.173 10.7991
1 6.93757 25.5303 14.9707
1 12.5636 14.8615 14.0973
1 12.946 4.6684 11.7349
1 26.2757 12.9062 18.377
1 11.5611 24.2147 20.3898
1 25.0008 1.70732 4.47445
1 9.55095 24.3137 26.9656
1 27.853 10.8225 18.7657
1 1.7422 10.3792 0.93358
1 4.75131 12.3521 6.43889
1 28.3452 17.0253 6.34686
1 1.75446 15.5653 9.88036
1 4.54128 14.6415 6.95402
1 29.3811 8.94263 16.0843
1 3.64238 2.75633 17.6082
1 8.37684 5.8728 12.8071
1 20.1751 24.7131 23.754
1 30.2501 1.03597 25.2375
1 5.73573 29.7711 22.1052
1 13.6325 25.7557 20.697
1 15.2424 30.1409 26.5548
1 27.5245 7.03518 5.1249
1 24.8404 24.1204 29.5076
1 5.35856 6.34642 15.2547
1 26.5922 29.5621 12.3789
1 17.7286 27.2993 14.13
1 0.244918 7.25056 7.50914
1 8.84491 23.6082 30.3829
1 12.4732 7.17319 1.76594
1 12.6795 29.5436 26.4252
1 16.9458 29.8895 15.5603
1 22.9016 10.0175 7.99259
1 22.6525 23.2589 13.0274
1 3.92058 21.9526 27.1408
1 27.9205 24.7954 24.4604
1 21.5149 12.5825 12.7221
1 18.4401 13.0007 1.36796
1 24.7056 25.1824 16.993
1 4.92767 16.5773 15.2847
1 10.9631 18.0491 9.85635
1 7.57865 28.9322 17.0075
1 20.9468 19.196 6.83454
1 24.2674 22.0279 9.02522
1 28.6756 16.4684 25.1879
1 10.1175 7.36982 4.98623
1 24.1831 19.4779 7.71334
1 3.9171 24.7912 8.37865
1 26.9825 21.9103 16.5354
1 25.7977 6.98469 8.8669
1 26.3959 21.2036 4.19554
1 7.35304 26.1805 26.9755
1 22.2346 16.5677 18.7258
1 28.4022 19.402 5.70229
1 14.4219 19.0746 25.9588
1 16.3772 16.9208 22.5959
1 25.8848 19.6959 28.2491
1 14.324 27.1181 17.1995
1 5.73403 28.679 16.6282
1 6.91612 24.3714 24.3767
1 11.0683 22.9263 11.6518
1 29.4686 11.4944 13.0922
1 2.3211 6.20028 17.8678
1 4.05036 10.6029 28.4617
1 13.756 16.8657 21.9703
1 8.5429 10.0169 12.2933
1 13.476 9.07982 19.3103
1 10.3685 8.69509 22.7706
1 24.945 14.0111 2.85296
1 13.2807 8.76093 5.33307
1 5.00137 1.74745 3.94668
1 15.8049 3.47918 19.932
1 7.87747 3.2571 5.37777
1 23.1171 14.7807 14.2729
1 21.9478 15.7756 5.74606
1 23.8473 1.39094 17.5412
1 4.26005 2.64249 24.6101
1 0.511217 17.4426 26.3512
1 3.384 26.0415 19.078
1 21.65 16.8611 26.0344
1 3.95345 12.5726 22.2037
1 6.82966 6.26641 6.03022
1 10.3874 3.16165 3.33561
1 22.5264 5.51602 26.6407
1 21.7132 5.46497 17.1146
1 27.719 20.3066 3.68779
1 23.4435 26.1603 25.8766
1 17.7911 10.8801 6.71794
1 20.7516 23.8841 10.846
1 29.3327 0.651232 11.7381
1 24.4153 13.1882 8.71735
1 28.6206 22.7987 5.08728
1 2.35458 5.74704 6.72339
1 1.11981 9.54236 4.32357
1 28.3309 11.7256 9.36609
1 6.57144 30.3458 5.67903
1 17.2358 19.1927 11.1956
1 28.5881 21.9851 27.5346
1 22.642 13.9052 0.862882
1 3.05009 8.18794 19.7445