4096
Atoms. Timestep: 640
1 14.9344 11.2694 17.0651
1 10.8701 18.9727 19.1173
1 3.07738 4.4084 5.33476
1 20.2799 11.3187 29.2618
1 5.54602 2.14562 30.4063
1 5.38535 15.2887 20.1879
1 8.98522 6.01647 9.74671
1 29.0084 2.85157 6.14442
1 24.187 3.12007 8.93538
1 28.916 13.2931 5.33136
1 24.0982 10.1714 20.5582
1 6.91993 13.1342 16.4557
1 15.2458 24.9649 20.6803
1 23.2945 4.57352 0.694668
1 22.2681 28.3555 16.6813
1 0.53559 3.474 28.1232
1 27.1895 22.9235 17.8839
1 7.54757 16.4054 3.42682
1 28.4911 17.0332 7.459
1 5.13578 22.8758 12.6832
1 11.4211 1.70965 4.31936
1 7.15523 23.7236 6.3795
1 14.6059 1.76992 12.0431
1 12.4397 20.9876 27.5612
1 6.16758 9.09683 10.9981
1 26.9369 18.7964 11.8414
1 17.1801 4.43932 14.8748
1 12.5744 6.04291 5.15425
1 25.1649 14.8236 2.1506
1 16.6231 20.2157 30.0925
1 10.4209 21.7192 21.2077
1 7.04867 17.9567 29.0845
1 19.1255 12.681 12.133
1 12.0219 7.8462 15.2354
1 2.99623 14.9033 4.97457
1 10.1448 18.3242 12.8191
1 20.6 3.26679 8.99347
1 18.0271 1.58854 23.0179
1 1.52853 14.2507 27.8806
1 23.8648 14.099 20.6059
1 22.4711 9.13145 24.4623
1 15.7675 12.5295 7.32964
1 13.5988 15.2959 19.1843
1 20.5239 9.49575 26.2514
1 13.4598 0.924641 21.301
1 8.9692 0.46201 18.4883
1 10.4639 8.70881 17.483
1 16.6122 5.72533 3.28564
1 5.30732 20.1886 3.73754
1 19.1609 2.41195 12.959
1 10.381 28.0277 3.7472
1 24.5048 8.45589 7.93485
1 4.32602 22.3997 6.64074
1 18.4242 6.63003 5.5484
1 9.05584 28.7546 22.056
1 18.6852 9.63767 15.3353
1 4.02834 17.2887 11.0013
1 4.25199 0.557685 1.43861
1 5.11159 28.1554 30.0976
1 29.3409 20.9583 24.601
1 23.6262 2.99259 12.2472
1 1.66522 27.5121 3.65254
1 24.6456 3.09624 6.3765
1 5.63679 9.06695 29.9822
1 11.3755 5.36843 4.90992
1 17.1544 24.1667 13.6149
1 15.9825 14.8593 28.5025
1 15.9294 16.6935 9.74475
1 30.2167 2.13642 24.887
1 21.7754 8.06109 19.2329
1 2.59198 25.2341 20.6295
1 22.8947 25.9624 8.21681
1 4.65219 1.94276 26.0491
1 6.98318 28.609 14.7903
1 25.3112 3.3335 3.33684
1 20.1322 27.8509 28.8008
1 7.63294 5.4645 15.6776
1 8.26102 20.6947 23.9047
1 2.88955 10.6541 25.346
1 25.8176 26.9917 25.5486
1 20.5618 1.02229 3.67134
1 18.6694 17.4999 25.9593
1 17.8289 10.217 19.9533
1 1.77131 18.1357 0.49068
1 25.9717 4.41671 7.82356
1 3.22529 23.7518 6.04553
1 19.8374 7.07813 4.16783
1 26.2711 30.3316 4.74704
1 14.9804 7.6183 23.8283
1 20.8398 10.6064 19.7284
1 23.6317 24.336 5.74877
1 12.9426 11.943 6.21128
1 23.7601 28.3034 25.9461
1 29.1491 21.9376 11.6212
1 28.5139 17.7086 3.33824
1 14.8426 26.7 5.88964
1 25.3477 24.9362 11.995
1 9.51439 8.52127 28.8419
1 22.7718 0.898353 21.8538
1 9.91963 22.1026 28.7914
1 7.10994 4.51677 6.47369
1 5.66762 26.1408 17.399
1 17.6111 1.6722 21.6204
1 13.3134 30.3913 3.58795
1 24.8385 13.2087 20.9966
1 0.328973 18.7705 3.16653
1 6.41481 6.19728 16.0506
1 11.6203 29.0784 20.2497
1 28.9177 30.0822 19.524
1 12.2765 22.9757 22.0174
1 3.30269 17.1354 4.0078
1 19.0126 16.2449 4.20979
1 24.798 8.19057 9.31734
1 18.4124 29.1103 4.1181
1 26.9026 13.7745 17.1609
1 21.6746 14.7301 20.002
1 11.3253 0.24986 10.1948
1 28.7932 26.8169 12.2148
1 5.48601 24.5263 2.2196
1 25.4108 10.1988 10.6883
1 24.9151 4.88702 13.2041
1 26.295 21.3261 3.39868
1 9.10353 23.7947 3.59265
1 22.37 2.0782 12.5341
1 26.2728 11.9074 22.3161
1 12.0006 5.49686 14.637
1 25.8143 17.8383 10.1263
1 16.9001 14.3271 10.393
1 6.57613 19.2212 16.3305
1 27.0615 21.866 15.4547
1 3.65848 15.2467 22.198
1 5.72669 13.5132 12.8397
1 6.60546 19.0121 12.9245
1 5.98165 6.72771 29.3874
1 0.274889 19.8043 15.6826
1 22.8075 4.64693 23.008
1 14.6885 10.7372 9.3052
1 21.8537 8.57885 20.6078
1 19.7143 16.6145 16.5183
1 27.7424 27.9936 8.04479
1 21.4546 1.85688 3.49244
1 2.06565 22.8077 1.95088
1 18.9386 28.5803 28.2693
1 17.2161 5.64767 9.60855
1 18.9202 23.0408 6.12596
1 17.3192 23.1931 23.6101
1 2.95815 10.9729 19.0779
1 28.6228 15.1958 4.26378
1 20.8489 7.63597 1.69869
1 7.80392 28.5794 16.1245
1 0.481565 28.5793 29.0014
1 3.28557 30.2279 27.4407
1 18.4262 18.0442 8.4867
1 26.0734 5.26818 27.6351
1 0.271424 29.0636 16.4311
1 24.8437 6.8189 14.1583
1 5.96042 17.4446 12.6116
1 14.6594 5.18131 30.3001
1 16.6538 2.79452 29.4443
1 28.799 20.9622 27.6891
1 16.5171 26.6545 1.92889
1 8.49223 25.7574 12.338
1 29.6162 18.9921 9.74238
1 18.4281 9.29382 28.1622
1 27.2184 9.1725 11.9512
1 25.8671 12.6406 17.2126
1 10.7153 3.88796 8.58125
1 19.4907 15.3024 26.4424
1 14.9559 10.3902 15.6739
1 14.8246 9.6689 24.9312
1 29.8306 19.9049 0.810762
1 8.83265 5.71714 21.4908
1 13.6169 16.5057 23.8586
1 21.9465 30.0082 12.8745
1 23.4136 13.1452 9.83715
1 9.30831 16.4686 18.9187
1 2.75258 24.6725 3.67405
1 9.96215 5.01553 5.43482
1 21.4649 14.2718 17.4128
1 29.6236 13.4775 7.97604
1 13.221 4.92474 15.2686
1 13.6355 4.94384 20.4094
1 11.2812 15.862 20.226
1 8.58689 3.01676 1.07163
1 24.8414 21.7757 6.01262
1 29.8534 11.0242 12.349
1 23.4855 4.91055 5.15875
1 8.85092 20.5992 7.27012
1 18.7834 4.60864 10.8563
1 25.9961 7.55672 3.52721
1 20.1472 16.757 4.6144
1 6.04979 1.56607 3.03924
1 25.47 17.0552 23.0951
1 19.5401 13.1433 8.07962
1 18.2515 23.2609 26.9521
1 26.7611 1.63309 28.7211
1 24.78 21.6543 8.81443
1 4.0515 13.7617 19.4716
1 7.47797 4.28622 3.33402
1 10.4475 21.6183 2.87014
1 25.7199 28.9227 17.5728
1 26.3664 5.9301 11.1992
1 18.2596 22.2259 3.17528
1 18.3796 6.13829 17.5657
1 2.00216 22.6329 26.6748
1 20.6474 1.95392 17.2675
1 22.9625 28.382 19.7227
1 29.1735 25.8711 5.3659
1 25.1702 17.8111 19.3489
1 4.1327 3.75594 19.448
1 18.8146 6.76791 13.0282
1 17.914 6.59017 27.5337
1 16.7161 16.8563 10.9943
1 14.2438 6.29185 25.4744
1 8.99598 24.9419 16.5173
1 1.77861 8.74017 15.7895
1 24.3992 19.1285 22.1912
1 12.3563 6.06091 23.7107
1 0.707262 7.0873 3.59509
1 11.7725 12.3965 6.87188
1 0.764656 14.6058 16.2055
1 0.625965 10.8486 13.2884
1 18.588 3.56082 19.6344
1 15.842 20.548 27.0176
1 18.928 9.39734 7.78411
1 23.9327 12.4356 23.0469
1 13.4354 15.1868 5.10867
1 3.92144 1.51841 2.47712
1 14.063 16.789 29.0309
1 20.6435 1.52701 28.7784
1 4.25627 25.2951 19.9236
1 8.59225 13.347 12.2963
1 15.7658 13.3129 18.4023
1 2.72715 7.90834 5.49007
1 3.25362 25.8973 18.6551
1 24.1754 20.6145 9.7262
1 29.7232 0.654234 4.41585
1 0.388726 4.9897 18.1458
1 24.9264 9.89644 29.8109
1 24.9555 18.8857 3.64595
1 2.81534 29.7967 22.7504
1 19.2895 4.60361 22.6383
1 26.3996 1.83414 12.6165
1 9.298 27.228 28.6785
1 21.5596 14.5797 10.4672
1 9.77264 18.6702 11.3222
1 1.49744 13.9525 10.1667
1 10.0586 30.2732 5.88007
1 25.9341 24.5828 26.3528
1 19.451 18.9897 14.0136
1 2.55051 15.9429 29.4743
1 11.7529 5.21217 12.5074
1 13.8563 10.1599 2.79338
1 19.1773 11.9536 1.31811
1 7.57572 11.306 11.0203
1 23.6681 30.0341 23.2965
1 23.9996 5.27814 2.01506
1 5.46856 3.31478 21.5391
1 0.245151 30.3278 13.6128
1 29.873 26.032 10.2122
1 14.5565 7.82352 8.2691
1 9.97667 30.2057 30.2185
1 18.5535 14.0442 7.46191
1 0.101453 14.3898 22.2124
1 29.6503 11.7051 11.251
1 11.8049 27.2081 14.7576
1 7.22956 25.1123 19.5185
1 9.31021 12.3903 3.89252
1 29.4336 11.9989 5.78115
1 26.3819 28.2282 8.01569
1 3.60053 11.0794 14.9345
1 21.6189 7.6777 5.76018
1 16.8361 8.44414 25.375
1 8.41628 13.7606 5.63603
1 30.2236 19.7484 18.4583
1 5.43355 12.7671 1.11865
1 28.1337 29.7821 11.189
1 4.53431 2.79575 18.4544
1 5.5802 19.3022 1.03745
1 8.81964 10.953 19.9659
1 15.9072 14.5164 19.1857
1 1.80512 27.5392 18.1996
1 15.7932 14.3584 20.5887
1 21.6097 25.3245 5.1707
1 27.0973 30.0048 13.0958
1 13.2985 27.0475 0.122614
1 13.2331 21.9868 22.0709
1 3.31053 13.6795 3.87403
1 16.3279 0.396122 7.0541
1 7.40877 9.90401 11.0362
1 14.1572 12.3906 10.5997
1 15.9244 27.6328 14.5875
1 1.75187 19.466 30.3977
1 17.7214 15.28 17.6318
1 28.1708 20.3311 24.7642
1 4.31733 18.6422 16.8931
1 15.3003 3.25188 0.961661
1 10.2092 17.7014 25.9353
1 19.4829 21.1689 9.83743
1 20.7057 24.4187 5.74398
1 24.0757 5.23326 21.0441
1 25.4026 9.29555 18.656
1 1.33704 11.768 27.1543
1 8.03142 10.9459 15.6945
1 10.6369 21.1971 30.1609
1 29.3357 6.83526 9.99029
1 11.8399 18.3452 27.9163
1 1.93287 21.4656 27.6883
1 15.3269 28.063 19.1879
1 19.1319 7.23395 8.29754
1 24.5583 8.82178 17.0967
1 22.9194 0.194519 3.88161
1 30.2895 4.68697 15.5989
1 25.3064 19.9226 9.71855
1 23.5068 1.13636 9.60294
1 10.8548 7.43632 25.8382
1 19.8126 3.93544 27.2414
1 14.2248 5.2486 28.0712
1 19.1719 30.2563 25.0258
1 25.6825 10.5031 24.9893
1 16.0901 13.5586 15.4712
1 18.3244 8.88164 14.1489
1 6.23856 9.68299 16.0728
1 13.374 0.197353 17.1031
1 12.5541 17.9117 22.1658
1 8.52957 26.6723 11.1204
1 6.04397 25.1628 13.1378
1 15.1775 17.4399 26.6655
1 2.6048 12.5077 28.877
1 5.40677 5.11288 16.6761
1 21.1152 24.402 14.8461
1 25.7564 4.11249 16.6334
1 13.7239 5.23885 18.7886
1 25.7271 12.7301 7.24001
1 17.1047 29.8156 27.1024
1 28.37 8.73397 1.02606
1 14.9375 0.744165 4.6152
1 19.8202 11.5163 27.8227
1 24.6292 7.70881 3.06534
1 29.0278 16.4198 3.34652
1 27.2164 4.51747 25.3649
1 18.6078 19.6582 24.883
1 21.7871 15.8111 1.58848
1 27.6856 9.33851 18.2103
1 6.06988 24.6735 17.2466
1 28.4464 28.9277 14.6907
1 1.459 17.6871 21.9527
1 8.74154 18.1341 17.0295
1 24.8707 15.5772 16.3547
1 6.316 8.86398 13.3558
1 13.6807 8.22998 7.19563
1 11.9324 28.4852 23.0589
1 4.50563 16.958 23.7242
1 13.2 6.22235 27.4077
1 14.1544 30.2302 5.02087
1 6.56725 5.51487 19.5064
1 26.4115 3.58634 20.6296
1 10.2394 20.1262 24.8443
1 4.56671 30.2483 4.12949
1 15.7089 3.62648 13.1398
1 8.42423 9.18995 10.1159
1 24.5626 24.6841 26.3035
1 13.0168 22.9648 12.5325
1 22.3449 5.62658 0.48411
1 11.1118 3.41184 11.2824
1 7.54702 12.0082 5.7606
1 4.92646 1.62498 27.814
1 25.6844 6.26721 5.56486
1 13.838 27.3517 21.5192
1 6.12267 23.2576 4.32597
1 29.3237 3.82962 14.813
1 22.8467 21.2765 0.446284
1 6.90214 3.03977 5.64868
1 27.5969 6.50999 24.4721
1 13.3152 10.8246 7.21089
1 4.69112 28.3089 28.5692
1 24.1613 17.7645 22.8361
1 24.6992 20.043 28.0713
1 23.5263 6.13301 7.04918
1 14.3061 13.6266 30.4335
1 3.24807 7.76207 12.5857
1 5.80138 13.2814 28.337
1 7.22115 7.42705 7.82145
1 26.9192 26.5397 23.2365
1 20.0092 1.42979 12.7028
1 14.8447 8.1148 14.7943
1 27.9269 1.98986 24.9072
1 5.7304 2.77868 5.4037
1 7.31434 10.7965 14.3216
1 13.5214 1.54487 17.482
1 18.7969 21.7445 18.7979
1 2.5232 14.3706 21.6
1 20.4146 4.0202 16.3131
1 22.4467 25.6001 23.1985
1 12.1985 10.837 11.2036
1 14.5233 25.5154 2.03743
1 24.521 21.2333 24.0982
1 29.3243 3.14535 17.578
1 20.6671 24.1338 29.5084
1 21.3295 16.0134 4.54767
1 7.26394 4.57984 22.9557
1 18.1435 21.0834 9.30545
1 11.9226 22.1142 24.1662
1 29.4653 14.2054 10.6144
1 7.63387 12.2819 7.69068
1 8.72912 7.49375 27.0402
1 7.88603 7.23521 18.4627
1 28.3659 6.9333 19.9014
1 22.8121 2.14668 21.1475
1 8.09419 16.9584 13.9497
1 29.4131 22.2864 24.2206
1 13.0028 7.18813 4.45103
1 1.21858 17.6595 19.8101
1 23.9021 29.2426 4.38603
1 12.715 12.8076 3.56967
1 20.2824 2.51797 21.3604
1 11.7667 10.1844 23.9993
1 7.97137 29.4659 24.305
1 8.21414 5.19179 2.21275
1 3.95565 7.48994 4.29953
1 11.4625 24.979 3.80023
1 2.72972 10.9487 28.8814
1 1.99694 2.13122 10.7447
1 30.2109 7.73831 26.8195
1 20.3682 18.4263 10.356
1 23.6601 26.6101 4.81619
1 18.3991 9.56691 2.35281
1 14.07 25.3816 14.9935
1 16.5271 25.5404 11.383
1 11.794 0.131802 3.55915
1 13.2845 18.6704 27.6674
1 23.141 16.5066 28.7962
1 24.2424 23.1995 30.341
1 28.3358 9.50541 3.42758
1 19.4187 24.2251 5.73942
1 13.7429 1.59513 25.9889
1 16.8083 9.79699 17.462
1 10.8358 9.29705 19.8367
1 2.65446 20.04 24.3207
1 29.9796 29.6974 25.7804
1 30.1242 21.6188 13.7791
1 20.4748 8.55193 18.6152
1 2.95492 14.3416 2.55533
1 10.7681 25.5178 4.8747
1 5.95424 9.67421 28.7853
1 23.0052 20.0376 9.69156
1 25.9047 19.3819 21.5975
1 28.8061 28.7091 7.703
1 26.2298 19.0905 3.4581
1 19.4741 23.9681 29.6681
1 11.474 22.9073 23.0849
1 1.87267 26.7375 28.9361
1 12.4672 8.54704 27.8174
1 15.906 7.88581 3.85143
1 3.7746 27.612 14.7217
1 3.45291 11.7613 7.89511
1 14.1503 23.4025 2.77908
1 18.1726 8.19223 8.27302
1 21.1851 23.4912 23.7143
1 11.5617 1.03568 22.8194
1 3.74593 29.2987 23.8432
1 11.5314 6.89537 19.955
1 3.83838 14.2197 23.5144
1 26.5949 11.7305 24.9547
1 9.51641 11.7474 28.6804
1 0.909608 11.5347 9.27188
1 21.3273 5.44911 28.6217
1 3.69573 8.09701 6.41112
1 11.0771 28.9735 12.6158
1 6.46471 0.289751 2.04277
1 5.42625 19.0052 4.44108
1 20.4318 24.1658 20.7045
1 14.2424 7.7792 5.82025
1 13.4598 12.6638 12.9552
1 10.5206 15.3733 6.82076
1 15.9825 18.9914 18.385
1 11.7964 24.9863 19.1149
1 24.9565 2.71111 14.375
1 19.7704 17.3875 12.4014
1 16.9414 1.19715 12.3173
1 4.78692 13.6557 27.0681
1 17.4092 5.02047 13.7522
1 0.891826 21.6333 0.207776
1 10.7943 25.4239 7.74486
1 15.5232 22.8089 15.8188
1 12.3653 15.7502 27.9469
1 19.8524 20.9073 17.1065
1 6.14132 16.3915 14.9505
1 15.3683 4.4371 18.3384
1 20.8453 10.6747 14.4435
1 4.66874 14.1909 16.0915
1 30.3081 29.8699 29.4153
1 4.55559 25.3709 13.0251
1 13.9226 11.5043 17.9609
1 17.114 5.07883 6.87046
1 10.1763 30.234 27.1867
1 9.275 3.20322 4.45003
1 21.0224 28.962 10.833
1 22.9462 10.5514 11.2436
1 10.1304 4.78264 26.7042
1 15.1921 10.909 2.00284
1 15.0267 6.83613 22.6274
1 18.0297 24.6907 20.4731
1 20.3296 4.55004 26.3111
1 22.2524 22.8282 9.05217
1 5.40412 14.8542 12.2876
1 27.8468 12.4063 2.85634
1 9.49105 3.34598 9.02269
1 0.776705 16.5978 22.774
1 28.4488 8.62256 20.5837
1 30.1648 16.191 1.13121
1 21.1564 9.11306 12.8199
1 12.1089 15.8552 4.32697
1 28.5849 2.94471 21.7832
1 12.5528 7.57986 23.9465
1 29.49 10.2128 27.8567
1 16.3664 20.8455 23.8739
1 4.71661 25.537 23.7446
1 29.279 24.4432 20.4085
1 30.4317 13.7705 18.348
1 0.822537 20.9137 4.1357
1 18.0336 9.43843 29.5686
1 22.0221 16.5946 16.7126
1 27.7318 3.28706 29.4572
1 6.47986 15.0547 6.60379
1 12.5473 26.9471 20.4143
1 11.6514 1.90712 20.4963
1 3.11376 15.0716 6.44586
1 27.7104 10.0312 9.8308
1 19.1612 30.054 28.2494
1 11.1168 14.8065 4.42522
1 19.3864 25.6259 26.3545
1 16.6361 3.78512 22.3486
1 14.7659 26.575 12.4357
1 0.158631 2.7237 16.9576
1 20.9313 16.9955 25.5857
1 11.1745 14.3721 21.7291
1 24.6852 22.6998 23.7261
1 24.8081 25.4421 23.3698
1 27.494 14.7696 29.1749
1 26.7707 25.9671 26.2009
1 3.05255 17.8853 17.6165
1 0.399369 12.2483 10.5808
1 27.8107 7.51657 7.81309
1 20.5628 26.9543 23.3391
1 7.92415 30.0047 1.80799
1 11.7901 22.5663 12.4969
1 16.6536 23.5104 5.88845
1 13.6326 0.874773 24.6877
1 22.9702 5.24779 9.18262
1 12.3848 11.5261 29.294
1 12.5524 14.1591 15.5305
1 21.7622 22.7207 2.6854
1 13.8108 24.8839 23.1223
1 27.0206 22.5362 24.1121
1 20.5596 25.5388 14.4011
1 17.434 22.5002 6.49106
1 29.9738 1.66071 2.01831
1 23.5445 15.2418 4.54122
1 22.5226 6.58514 25.6904
1 25.6366 19.1801 19.0481
1 4.30069 28.8675 9.01991
1 26.1688 21.0241 21.5121
1 4.23172 14.2013 6.78362
1 6.46849 10.3799 1.22385
1 29.6485 17.4599 27.9382
1 9.28633 1.32835 10.8171
1 25.3884 28.86 1.85642
1 26.3734 27.621 29.0408
1 21.7497 13.7528 7.94758
1 29.9581 26.035 4.0237
1 17.1976 22.6026 9.1472
1 10.9564 17.5532 17.7118
1 24.8026 13.2664 23.6112
1 11.496 13.3857 3.37307
1 14.3135 18.6843 11.0376
1 15.8716 29.0849 17.0361
1 4.6127 17.7054 29.3946
1 27.9973 26.3891 16.1503
1 27.3093 2.62593 16.2976
1 0.573959 13.9231 25.6623
1 9.69662 21.1561 20.2249
1 1.6801 2.71841 6.366
1 21.7798 27.0371 22.9725
1 15.8806 0.331894 27.457
1 25.4493 4.5333 22.811
1 10.6976 14.0967 1.88722
1 7.64705 2.2452 26.0432
1 3.335 16.2701 10.9079
1 20.7637 15.7882 10.5039
1 4.23319 17.2591 0.346609
1 1.55168 29.7143 11.6899
1 12.4827 1.83411 6.27627
1 0.392519 21.1542 7.50472
1 15.856 28.2289 23.3276
1 2.54268 23.0862 23.2624
1 26.2539 0.357141 25.142
1 14.3501 8.97897 18.3905
1 13.4647 13.9197 19.0437
1 18.1635 27.4085 23.1493
1 8.00036 2.5541 6.66375
1 17.247 30.141 1.0742
1 11.2669 20.6049 23.8146
1 26.0311 2.79694 16.8525
1 4.3345 11.0087 25.2601
1 25.0196 24.0416 5.90828
1 3.11871 9.76425 22.8189
1 18.3379 25.8712 17.3449
1 15.0013 6.27101 7.84452
1 30.1299 4.29004 0.751217
1 27.1988 19.038 0.455592
1 22.4895 16.1111 22.7823
1 8.41623 1.46966 17.5023
1 17.1931 25.5757 2.16107
1 11.635 12.7138 8.2523
1 17.5586 24.4 26.4347
1 15.7789 30.3279 19.2431
1 8.36886 23.8274 8.4042
1 27.7717 16.5186 22.76
1 15.0236 17.7792 22.6258
1 7.09627 24.2098 28.6152
1 26.1629 0.151629 15.572
1 14.8905 8.4617 4.80729
1 13.4501 11.1093 20.6709
1 15.8522 4.67717 15.2919
1 21.9607 29.6573 7.35338
1 2.55772 25.7387 9.25064
1 15.3361 12.0606 21.6884
1 0.0922331 15.4263 25.1188
1 12.8786 2.27731 29.3896
1 0.290993 30.1646 12.0343
1 10.7287 16.9563 6.12596
1 17.9919 25.6806 26.1365
1 24.5953 26.2856 17.5784
1 27.4835 3.19242 25.7559
1 9.93073 3.54066 3.1462
1 29.1076 25.3549 26.8803
1 26.8216 0.594188 1.65898
1 8.09957 9.66083 6.44319
1 1.86515 26.4803 13.2863
1 4.08928 11.0128 0.833041
1 18.1743 4.88628 19.6863
1 30.0585 7.78355 16.8463
1 12.8239 12.6072 16.0096
1 29.0645 19.0412 3.13228
1 19.2926 16.4808 19.2674
1 28.166 11.4168 24.5667
1 7.98555 25.3357 14.6271
1 14.3014 2.49017 28.0094
1 26.4232 26.7324 11.415
1 19.8296 3.348 6.58711
1 16.711 7.17973 15.9959
1 4.06433 23.9024 9.14849
1 13.1315 24.7353 12.4241
1 7.67472 8.61701 5.90747
1 9.24808 9.36437 0.634149
1 9.02102 28.1695 18.5594
1 18.535 27.7878 10.9716
1 19.9381 13.1498 15.0398
1 4.19637 20.4028 10.3962
1 29.0308 2.06671 23.8909
1 23.1018 23.5129 11.8432
1 22.3528 21.0824 15.1502
1 13.6825 10.3524 4.17222
1 8.38593 23.5211 0.71413
1 5.6322 11.4307 3.39073
1 27.995 6.8514 18.3292
1 14.717 17.6674 9.78354
1 30.0656 6.56034 20.0384
1 3.39551 9.31722 18.9093
1 22.3641 26.2002 29.078
1 11.5906 21.9333 5.97235
1 11.2563 9.9121 17.6179
1 4.2401 26.6866 11.2105
1 27.1719 18.4971 10.4069
1 18.5175 7.00497 30.4114
1 24.6869 14.0769 26.06
1 1.78628 12.5863 20.2284
1 24.5674 2.08302 0.867505
1 3.2885 7.00443 28.4935
1 24.3153 22.76 11.9849
1 2.51815 1.0538 27.2133
1 16.7204 12.4942 17.6887
1 0.275074 16.553 13.6314
1 13.2423 5.56851 16.4873
1 26.9806 22.7796 6.0798
1 4.84091 25.7102 4.25636
1 25.8467 25.7205 20.478
1 7.8551 14.7845 6.36824
1 25.707 1.69748 24.8214
1 14.9684 11.0841 14.3775
1 18.2508 12.3508 13.3156
1 3.06251 19.493 21.9566
1 20.2173 23.4238 8.89246
1 7.62964 29.3415 18.3744
1 30.3777 4.77797 3.28035
1 2.36391 25.8125 23.1047
1 18.1333 17.4675 19.6949
1 9.94259 28.8661 17.73
1 6.52746 16.2875 18.3492
1 4.22647 5.66053 9.75369
1 25.7489 2.93372 11.9632
1 2.18532 18.377 6.04823
1 14.934 12.9578 27.0388
1 5.72974 1.26108 25.5373
1 5.28855 28.6505 17.7203
1 10.5413 22.6285 0.885098
1 5.18494 12.7199 8.57163
1 24.1051 2.17931 18.2651
1 7.6919 29.406 6.20645
1 16.7298 30.4339 16.8454
1 21.7638 24.6735 26.6747
1 23.2271 17.6129 0.937269
1 9.98242 8.79298 30.0465
1 12.9199 3.84393 9.98333
1 15.4743 3.08892 5.59309
1 1.01738 25.5306 8.59004
1 22.2252 11.0626 0.864545
1 9.32484 7.89877 2.53825
1 28.2078 11.1035 1.50164
1 29.289 11.6387 15.2486
1 14.8397 16.5985 21.7676
1 7.68827 10.2885 19.3239
1 14.3263 30.3334 0.602809
1 22.3537 6.26937 14.8304
1 15.768 30.3881 3.82206
1 22.5838 8.03232 9.42224
1 19.1978 25.5305 14.2763
1 15.1587 14.397 2.32695
1 24.1003 4.36149 23.2549
1 17.8066 17.0079 14.3556
1 0.180225 4.97251 1.82026
1 18.7776 13.9423 5.71937
1 6.76434 16.6736 4.70702
1 19.63 15.0828 12.4844
1 2.47412 10.8837 23.0071
1 22.9174 8.8546 28.0932
1 16.5313 4.01928 24.728
1 9.87059 12.6199 24.761
1 10.5099 15.4178 11.2161
1 10.016 15.6711 19.7452
1 2.77195 8.97159 26.4031
1 0.515849 14.9392 1.26593
1 6.10568 12.1004 7.68571
1 8.72593 14.056 15.4723
1 28.4056 10.9037 23.0653
1 5.43492 7.67172 17.8946
1 13.949 15.7904 7.37133
1 21.164 18.527 5.78849
1 9.22325 12.8507 15.8961
1 26.9961 8.64472 2.99376
1 0.202592 1.12476 11.3902
1 8.03674 14.8427 16.754
1 9.83048 10.4135 21.4495
1 0.110081 14.1592 19.7652
1 2.06399 28.414 22.299
1 18.7851 17.5843 6.92836
1 0.518327 9.93244 0.836831
1 19.3911 29.2419 22.5463
1 0.544648 2.0604 22.1115
1 4.7117 12.6648 19.6377
1 16.6495 15.873 16.9874
1 29.9886 6.94723 7.20442
1 25.0855 15.6198 8.17181
1 12.8155 22.133 5.41972
1 5.84729 11.03 18.1614
1 14.4503 18.8791 5.87904
1 16.938 7.47036 11.3886
1 15.4518 0.15337 10.7873
1 27.3237 0.741442 17.408
1 3.29391 3.85463 27.1262
1 19.164 15.0942 15.4963
1 19.4216 11.268 30.3623
1 23.5888 30.4442 24.797
1 1.88155 14.9866 2.13944
1 21.8304 10.4788 22.4239
1 15.2316 8.98165 21.1202
1 22.8369 15.0456 1.60509
1 16.7813 21.8751 13.8744
1 28.6324 19.5634 28.0797
1 0.107576 27.5786 16.4529
1 9.18604 15.6395 1.03563
1 20.0515 1.06881 21.0017
1 1.92695 6.26708 3.55559
1 22.209 15.1889 13.387
1 13.2433 28.9318 22.2344
1 6.94614 25.5597 24.7796
1 6.30225 27.8307 25.236
1 4.52159 1.12935 0.289738
1 5.88719 1.35927 23.8816
1 5.1357 16.0878 27.9736
1 1.40135 12.8781 7.37037
1 8.61806 24.6171 9.88307
1 13.4983 28.2919 25.6722
1 2.90499 28.4099 8.92699
1 22.1141 6.88303 20.1762
1 12.8193 12.029 10.1627
1 1.6629 8.62964 21.0889
1 29.5327 3.2203 10.0867
1 3.69927 26.1658 27.5949
1 11.4068 21.2693 7.41262
1 19.9416 5.8432 11.3038
1 2.69806 30.0559 1.24588
1 17.0185 27.9218 1.51877
1 27.0083 10.476 22.575
1 23.2829 19.8965 21.7424
1 12.7081 25.1315 15.1677
1 21.7455 1.986 19.4601
1 24.1878 14.4391 16.351
1 10.3167 24.7391 10.0032
1 21.0874 14.9272 28.9983
1 8.0927 15.9924 26.4119
1 9.31233 18.607 0.505523
1 11.4628 14.582 30.0582
1 23.6004 21.02 20.9261
1 4.94085 20.4793 6.85417
1 10.382 9.7035 23.9297
1 29.5548 0.314576 1.75592
1 27.8362 6.82135 26.7201
1 8.47616 16.5536 27.7071
1 30.2917 10.6436 21.6372
1 1.30501 11.3191 16.9611
1 6.06142 27.397 5.8867
1 1.01091 17.9239 24.892
1 24.599 6.09722 29.3794
1 24.44 1.72675 28.0091
1 11.4878 5.5666 20.5652
1 11.6959 3.3809 9.72026
1 0.129317 25.7329 15.2888
1 13.5397 14.2757 9.02014
1 11.0956 2.58866 3.01895
1 20.4533 22.095 2.77461
1 12.5567 20.43 20.8471
1 1.73871 6.98503 28.074
1 21.2788 13.0128 16.7847
1 12.9606 23.3785 4.90058
1 5.48666 26.599 16.1697
1 17.0285 19.1912 21.7532
1 16.0666 17.853 28.0757
1 6.97477 14.7555 1.48845
1 0.942675 3.78811 8.70079
1 5.9542 12.3865 19.0429
1 5.17658 25.2516 15.3461
1 2.04254 13.0267 21.9026
1 3.88539 11.419 12.1821
1 5.24335 7.24322 1.25129
1 17.9604 2.44425 24.136
1 0.589946 28.8607 14.1487
1 10.6437 6.56555 28.43
1 27.3162 14.4144 8.15478
1 15.622 22.8898 8.69889
1 8.29311 21.6909 13.866
1 13.6153 11.0469 26.6202
1 17.9445 20.6788 12.188
1 4.64938 30.4326 19.2499
1 16.4402 19.418 27.8136
1 26.6602 8.54308 18.8558
1 6.62061 24.9657 14.4727
1 17.9501 29.8451 17.6735
1 20.1056 10.5138 15.6957
1 23.1147 18.6732 15.8067
1 14.4067 6.74532 16.1292
1 25.3204 10.5115 26.3586
1 12.6666 3.95985 0.642479
1 25.8266 22.4059 27.0294
1 2.87979 27.4795 21.8841
1 29.1357 22.4269 14.5432
1 17.823 30.3787 24.9381
1 26.1093 22.3421 8.7286
1 24.855 1.87862 22.217
1 4.59487 23.2023 16.8502
1 19.6322 5.38364 9.71676
1 0.44315 17.6599 1.10028
1 25.7017 1.28444 5.23614
1 27.1488 20.3032 3.39884
1 24.1058 23.0131 14.9706
1 7.67975 16.9677 9.3404
1 16.5786 13.6685 0.639335
1 23.3264 1.38175 17.5665
1 13.8283 17.4796 5.72874
1 28.6286 17.2416 25.6184
1 4.7324 0.282473 27.9769
1 19.3054 11.617 16.5121
1 25.6652 20.3902 6.36506
1 10.2046 8.03681 10.1847
1 23.4184 28.4297 13.9834
1 3.11909 2.49041 16.177
1 11.0225 25.4651 13.2212
1 8.67378 17.88 29.682
1 25.4885 27.1959 20.3834
1 25.9834 5.24541 26.0961
1 26.9674 11.5763 29.823
1 13.8654 5.58384 8.54901
1 21.6915 17.3175 13.0902
1 0.661779 30.4199 23.8257
1 27.5432 10.4488 12.0824
1 7.77522 0.398604 6.14327
1 23.4263 4.90835 26.5634
1 24.2799 15.5064 25.753
1 25.0007 17.8134 28.0416
1 0.86926 15.2757 13.7102
1 21.7113 20.2693 9.33931
1 14.3771 23.0783 26.7803
1 28.6283 1.56685 21.698
1 2.62775 4.89611 28.2229
1 2.68395 16.8538 0.418267
1 15.4115 14.4225 0.907832
1 21.6386 2.72533 20.6511
1 20.3989 10.2566 22.4305
1 7.35962 10.7863 0.110336
1 20.1345 8.0479 17.2391
1 3.06795 8.76173 21.4584
1 8.87721 16.8363 8.70781
1 11.8254 13.9635 24.1133
1 12.5195 17.3736 25.6703
1 24.3423 4.64031 16.8489
1 28.3749 18.0043 0.818514
1 25.5462 7.38382 25.4775
1 2.25632 2.39086 20.0193
1 18.5053 26.4158 5.18398
1 22.515 21.2368 27.5931
1 9.15846 20.8722 25.1823
1 18.4548 2.54952 26.1633
1 18.1888 18.4797 18.8798
1 11.4213 21.8965 9.69065
1 4.56541 4.9166 2.75594
1 2.18132 27.8885 27.5484
1 19.6101 23.7089 12.6704
1 18.1312 3.40053 15.1332
1 1.84079 13.42 16.5413
1 9.47273 29.5344 3.82019
1 20.5949 19.7486 27.7785
1 7.49176 24.4308 7.46911
1 7.513 20.7835 15.1759
1 23.0142 14.3836 14.1899
1 8.95486 21.1872 3.07756
1 16.5145 25.4889 23.363
1 18.0645 20.3873 17.4134
1 12.0862 2.72651 24.8844
1 11.8572 8.18464 4.98824
1 7.95325 23.5688 25.7546
1 9.31855 7.18303 4.85913
1 7.79855 5.52496 5.54591
1 9.20888 14.7168 7.57014
1 5.38396 20.0291 29.928
1 27.0083 8.95282 20.2977
1 27.0548 12.5612 21.3352
1 19.3929 17.8871 1.01847
1 3.56931 28.2993 19.6643
1 14.3304 5.89447 13.2782
1 15.113 29.3644 18.2959
1 4.56363 27.4488 0.869601
1 4.15217 17.0385 28.1484
1 12.7866 15.9746 2.88658
1 4.30793 28.2509 13.3154
1 2.8149 26.8001 26.5142
1 6.54425 10.4144 21.6638
1 20.3753 22.2262 6.10734
1 27.4539 21.8777 8.46836
1 29.0445 8.95043 12.9959
1 24.0545 27.3275 20.1537
1 6.30446 6.43818 10.9851
1 7.28031 16.8507 24.5288
1 29.7308 18.7614 28.0196
1 17.2393 13.1376 16.187
1 22.3805 20.6852 17.7231
1 9.36321 2.71019 22.1191
1 8.05623 20.5045 26.3604
1 30.211 8.81927 13.9875
1 10.8626 7.054 17.401
1 8.08019 6.91393 21.2016
1 12.2925 6.74832 14.0624
1 28.4958 5.34666 7.36147
1 7.47279 25.1679 4.53909
1 8.55855 8.85179 26.6402
1 12.2471 21.6714 17.2505
1 11.9878 9.83976 18.9054
1 15.4719 23.5975 20.7327
1 18.8034 26.1124 29.0923
1 28.9499 15.8504 22.8655
1 20.582 23.857 11.7015
1 11.8038 12.2993 25.9526
1 25.6786 22.7796 5.96799
1 4.36948 10.2532 3.65085
1 12.0938 28.9846 26.2641
1 15.1921 10.2502 13.1577
1 25.8603 8.30079 24.1425
1 26.2483 6.12129 20.8327
1 8.73866 18.3955 13.7013
1 16.4663 25.1627 14.2428
1 20.3009 26.7887 26.007
1 11.1641 22.5064 25.3529
1 3.2659 1.84974 10.7378
1 18.7615 6.42264 29.0616
1 24.197 9.3402 26.4584
1 23.2381 1.51135 3.59669
1 4.22105 2.98056 28.1705
1 28.5033 8.14806 21.99
1 27.2481 4.85557 18.0117
1 9.44542 13.0767 0.273674
1 8.03445 0.926967 3.82178
1 1.69758 16.1923 17.9582
1 10.1081 27.0657 26.4302
1 15.6585 6.07987 16.3011
1 13.5739 27.3249 12.8911
1 18.4232 18.8043 0.867793
1 16.7902 24.6743 8.56023
1 11.1117 14.0112 11.1516
1 27.3266 14.5042 2.14849
1 12.469 18.1507 5.41781
1 28.8939 9.82296 2.14823
1 29.5159 29.2132 11.894
1 26.2176 8.22317 9.54546
1 22.3665 10.4475 23.671
1 24.5073 23.9915 8.85004
1 6.21456 24.1614 18.6448
1 29.6381 2.47446 0.659915
1 8.70811 11.5155 21.0629
1 1.88536 2.45412 8.85519
1 1.68142 0.434191 2.4752
1 29.1228 27.496 14.3458
1 11.8409 3.04019 28.2997
1 12.7493 6.18477 30.0069
1 29.8581 16.753 22.2563
1 8.46495 8.36673 1.30944
1 10.756 12.8515 2.05282
1 28.133 1.57684 16.6089
1 5.7862 24.8582 25.683
1 3.54252 8.85326 10.4388
1 15.2929 19.2258 17.058
1 23.1626 28.1812 11.0029
1 9.78846 0.717766 12.8737
1 23.8755 27.9524 28.806
1 29.2858 6.52623 17.2713
1 13.3374 19.512 17.7
1 6.72852 18.3282 4.74309
1 28.7144 24.0754 3.07887
1 23.5974 25.3113 29.4227
1 4.63715 14.0947 8.46775
1 23.9591 0.350633 19.8038
1 0.228288 23.6386 17.1583
1 26.7222 21.6826 12.0135
1 10.2417 12.0031 4.77795
1 7.1249 6.43925 4.50411
1 1.59916 25.4263 2.62279
1 0.725788 20.7562 27.9132
1 11.0003 6.26215 18.7798
1 19.2247 2.41305 25.0556
1 21.4058 3.21969 3.29541
1 10.686 30.3876 23.417
1 3.44963 28.4524 3.14868
1 20.3512 29.0213 19.179
1 5.03416 17.8766 26.0999
1 14.2671 24.8636 18.0018
1 22.6732 9.32138 2.85457
1 4.05919 19.4548 15.5446
1 18.6401 6.24837 9.33755
1 12.8224 5.83542 26.0832
1 20.5601 15.4114 13.7494
1 21.8794 2.35907 18.0511
1 29.7272 18.3569 0.619149
1 2.01595 18.2595 16.6904
1 19.5491 4.63352 7.21282
1 30.313 22.2934 21.0451
1 28.5721 27.4248 26.384
1 4.78998 23.3335 4.25531
1 29.9763 27.4867 26.8443
1 25.3953 27.171 14.4056
1 15.6824 8.47822 8.94769
1 1.55047 22.0034 16.7287
1 15.011 16.7371 3.82855
1 16.5293 21.7681 26.8988
1 28.5882 29.643 25.8987
1 12.6139 4.59647 29.6798
1 28.1673 28.907 16.2709
1 22.4625 12.3782 26.7155
1 14.9101 23.7418 23.1364
1 10.9984 20.4277 27.635
1 21.151 21.8337 15.2821
1 0.105022 18.9471 6.77458
1 29.5394 5.18603 29.9769
1 26.4745 22.7416 0.528363
1 2.27072 15.9735 4.28259
1 22.9894 15.7657 25.2447
1 19.1596 6.06203 22.07
1 18.2755 1.45658 27.0377
1 27.8865 27.5664 23.2361
1 4.0591 9.03152 12.1756
1 2.49092 5.67767 4.75468
1 30.1197 7.63929 14.6973
1 21.5988 5.84749 9.00412
1 27.9979 28.7778 5.39012
1 14.4364 24.8133 7.80616
1 3.48426 14.2533 18.1436
1 10.9645 23.8358 16.1213
1 24.6361 7.89388 26.4744
1 8.31449 9.15904 25.2858
1 7.00776 17.0546 2.15005
1 21.7501 10.1938 6.01845
1 7.04734 19.209 29.502
1 27.6352 25.0524 10.499
1 10.1944 21.6831 25.8946
1 27.615 13.2497 15.3762
1 12.118 29.5548 1.25041
1 23.6211 15.8845 10.5312
1 24.3611 22.5848 17.7722
1 17.0713 4.45213 29.389
1 11.0409 0.986577 29.4045
1 11.422 1.44159 18.4038
1 12.2959 23.9851 29.5513
1 18.3356 13.161 8.79597
1 7.62009 2.03992 3.13513
1 0.578147 17.2677 9.29168
1 5.15743 29.7013 13.3916
1 20.6754 4.64571 18.7241
1 18.3527 12.2482 5.61026
1 4.45414 18.4209 1.16477
1 2.41355 8.28343 19.0397
1 13.133 3.67388 20.5113
1 2.97845 30.4272 17.2473
1 2.62556 22.9591 18.6199
1 5.97916 20.3361 26.5372
1 11.1972 10.8132 26.3728
1 5.02786 8.42275 16.6388
1 2.53827 5.7593 25.8533
1 0.52276 27.1411 4.39586
1 6.60942 21.4436 12.0519
1 22.3362 11.5285 21.4567
1 26.7281 9.56065 24.809
1 27.2784 2.7371 1.25833
1 27.8111 23.8662 6.03323
1 13.3561 26.686 4.43256
1 1.319 26.6618 23.8418
1 27.3034 17.3559 25.7071
1 20.6154 8.95971 21.0203
1 9.03525 7.72715 24.6268
1 3.20117 3.14401 20.7956
1 12.6514 26.0533 26.4009
1 25.2166 18.0603 16.1854
1 11.8284 22.4608 19.3875
1 24.9572 12.2189 21.9625
1 13.6534 17.0889 3.03044
1 13.8187 1.36287 20.0841
1 19.9102 11.519 21.9637
1 9.66302 2.87332 19.4936
1 1.97542 27.3395 12.29
1 14.7095 15.8879 23.0535
1 21.6861 1.58597 15.5648
1 1.04498 28.4381 8.15179
1 5.51543 18.1089 8.76301
1 26.4924 23.9348 2.91043
1 0.758254 10.7628 23.6751
1 16.5264 16.9322 13.4501
1 12.2938 0.207101 16.1582
1 14.2407 6.60683 2.71378
1 10.3751 7.72187 15.207
1 11.6921 28.3622 27.4854
1 14.7121 12.119 8.51467
1 6.51348 5.34936 3.75819
1 1.86973 24.3373 23.2335
1 10.3238 23.7277 23.2386
1 19.4684 6.98506 11.8215
1 12.2787 5.81267 1.87875
1 16.3494 28.9725 1.13664
1 7.30693 8.52644 8.75016