4096
Atoms. Timestep: 620
1 16.7287 11.4289 12.4983
1 21.0923 26.1783 24.7014
1 10.4146 10.2011 6.42681
1 16.0847 2.46409 21.0795
1 1.35213 20.4139 4.98347
1 13.9845 20.2955 27.9154
1 18.1295 3.9099 10.5003
1 26.7097 1.1897 6.73935
1 14.1932 3.0977 5.6214
1 19.5486 14.6584 2.0231
1 20.0002 11.1179 19.3825
1 25.1412 1.23516 17.1104
1 11.3383 3.3573 18.3188
1 20.169 3.76878 28.9198
1 25.6218 22.2039 13.2238
1 7.67975 22.2055 25.584
1 22.8577 24.7932 16.3604
1 5.25808 14.957 27.4529
1 3.87549 7.84286 0.565799
1 4.15721 28.8938 14.9698
1 7.32206 25.4416 11.8539
1 9.11775 22.1632 15.689
1 16.729 16.2553 16.5286
1 7.28791 23.5558 25.5946
1 10.1037 9.94713 8.94039
1 29.0843 8.74876 12.5367
1 17.1997 30.2467 10.7308
1 7.38767 7.84519 11.3897
1 17.7466 15.1301 29.1988
1 6.68491 23.8705 27.2059
1 9.46499 22.7672 10.5276
1 4.69857 13.1978 0.787761
1 18.6769 18.1701 11.5806
1 12.1868 9.34245 19.7231
1 0.328977 25.8724 10.2078
1 10.8134 26.1761 20.4841
1 27.1028 6.77447 13.3339
1 15.2269 21.74 27.1156
1 11.2179 15.1162 4.17675
1 28.3485 12.6131 15.9446
1 17.4237 3.7619 22.9245
1 28.0863 18.3858 8.41384
1 7.33193 15.5241 14.5635
1 17.8356 13.712 15.8645
1 16.078 6.5464 1.92701
1 16.5088 0.993104 21.1938
1 12.1647 3.70782 19.4465
1 12.86 6.05766 0.272609
1 11.5595 20.4645 11.1288
1 17.0152 3.03363 8.46198
1 16.3783 6.15666 7.66694
1 17.9765 3.93107 14.3261
1 10.5924 24.1682 16.7439
1 12.357 9.59702 8.24935
1 3.05543 24.8882 24.1818
1 17.9288 9.66175 12.4576
1 3.78959 10.2004 19.4187
1 8.46437 24.9603 29.5731
1 4.62006 28.3892 27.9838
1 26.1321 10.9215 29.008
1 0.677058 10.1047 15.9915
1 29.3647 28.8548 10.9383
1 19.6545 16.2043 13.3294
1 8.07334 13.6343 3.42972
1 7.25646 3.4479 10.2803
1 19.8441 25.5188 4.9888
1 19.6623 18.6248 28.3066
1 22.4972 18.9976 10.6717
1 27.2254 27.2388 18.4414
1 21.7209 4.81234 7.31412
1 13.4361 23.3337 26.3855
1 22.9861 2.94891 0.854484
1 5.15307 7.30504 1.75513
1 11.6399 29.9009 8.74501
1 2.57192 29.6476 5.93137
1 21.2508 0.959204 26.6036
1 4.0175 4.64884 4.22739
1 24.3156 26.4275 23.2081
1 0.722118 8.3123 2.16098
1 1.05535 26.0546 19.609
1 23.9446 7.63507 28.9573
1 18.9897 19.2323 24.3733
1 19.1418 6.69589 15.2106
1 29.8713 20.6874 1.97264
1 24.1622 4.05024 5.61548
1 28.3566 26.7237 11.2665
1 18.1233 7.89142 25.385
1 0.817566 29.831 0.410698
1 15.6061 2.67841 19.8669
1 27.5023 10.3366 25.2364
1 21.7109 26.2125 9.23966
1 8.18996 7.27181 6.53582
1 17.844 26.1553 27.0653
1 29.8369 13.4576 11.3032
1 26.7464 21.6731 4.61768
1 15.1959 23.1283 8.5389
1 23.8518 20.4034 7.06788
1 5.81029 0.929638 1.99799
1 18.4117 1.41303 16.9048
1 12.3788 22.3526 28.6647
1 7.06727 4.32099 6.74038
1 0.554213 27.2452 19.1968
1 12.7518 23.6483 20.7312
1 8.35588 0.37599 3.90362
1 19.8806 21.0221 19.6318
1 0.599677 18.5924 1.85304
1 3.23305 14.7318 10.3401
1 11.5752 29.7018 29.8344
1 13.2768 5.10841 12.1078
1 12.6883 26.8517 28.7228
1 10.7974 14.2856 8.59331
1 11.7844 27.8556 23.0579
1 25.6937 0.68351 12.1908
1 20.0145 27.5636 4.33255
1 28.4988 15.6398 22.9455
1 24.0049 14.6182 14.3101
1 11.0003 27.467 11.3338
1 29.4753 21.5436 5.19775
1 14.584 27.6267 9.59223
1 18.4673 10.6195 10.727
1 18.5738 6.74034 18.7395
1 25.3078 21.4719 4.19561
1 21.5128 30.2618 5.33891
1 23.6901 25.8513 19.6484
1 7.99043 16.8074 3.8096
1 13.9242 9.73823 18.0443
1 30.2466 20.0958 11.2459
1 15.4306 21.2233 17.4453
1 16.1103 21.3652 14.0312
1 4.07286 29.358 9.94191
1 28.4223 17.3587 19.4828
1 11.0196 10.6557 15.4728
1 7.77726 24.6629 10.4784
1 9.86678 3.59435 5.4865
1 7.26255 22.5438 17.0457
1 19.4671 4.93964 16.5282
1 13.0435 9.8206 13.3836
1 21.2893 8.77124 19.9149
1 12.8092 21.6648 26.2014
1 29.0581 22.7761 5.59299
1 22.2723 3.31697 27.8053
1 10.4928 23.7518 22.4675
1 22.7952 0.650685 29.9068
1 12.6248 23.4466 13.0687
1 22.0411 21.4947 9.77971
1 23.898 27.4823 17.8277
1 3.76005 12.8982 12.944
1 22.5688 14.2833 29.5042
1 19.8324 0.591457 7.0301
1 20.989 20.2518 16.8407
1 25.2883 26.9746 29.6787
1 3.13276 23.331 28.9993
1 19.6774 10.7962 5.87522
1 18.1331 3.77879 0.976594
1 5.59147 20.5928 10.0787
1 24.4966 4.97671 10.1348
1 7.73294 23.685 12.5044
1 9.26245 8.73145 26.0703
1 5.3188 21.2158 29.1655
1 28.979 19.0566 26.1527
1 24.405 29.8751 3.96362
1 2.28852 25.6288 19.6553
1 8.39014 22.8434 13.5309
1 11.0206 4.7599 28.3789
1 19.3381 26.2162 10.9154
1 1.48757 12.4844 13.2499
1 17.1378 6.41458 4.12033
1 20.0949 13.5544 28.68
1 17.3691 11.1558 19.5102
1 9.07911 14.2045 22.9165
1 5.00481 23.4598 30.1408
1 12.6825 6.87383 17.7387
1 12.4047 20.5308 19.3408
1 30.0635 11.5501 20.2926
1 0.256784 4.42025 9.59156
1 17.8811 13.4543 18.3165
1 8.47853 21.3066 13.1823
1 13.3755 26.3483 7.86208
1 23.3457 17.1504 16.629
1 2.80216 12.3797 9.80941
1 7.25197 9.93035 12.0022
1 21.2827 10.943 21.9767
1 8.66881 11.6877 21.3385
1 16.7776 29.5741 2.00665
1 0.944694 22.7026 7.53122
1 28.822 5.62896 10.2228
1 20.457 2.97217 7.2023
1 14.1339 19.3626 12.8832
1 22.3688 9.90973 18.1406
1 25.8908 9.61066 4.48776
1 14.1279 20.3005 4.82464
1 29.9469 9.63005 28.7128
1 26.6341 12.5824 22.0969
1 11.9968 16.1994 13.167
1 18.3953 27.8628 20.3627
1 4.67376 26.8248 3.41381
1 3.73543 23.2641 11.8717
1 6.49652 12.221 12.0566
1 7.03968 4.40095 9.17263
1 20.9309 18.8913 3.01752
1 27.832 26.6881 24.0272
1 1.772 0.901124 4.83487
1 19.6472 19.2875 2.40136
1 17.2148 0.471618 4.62397
1 0.348471 19.0196 8.23792
1 9.96212 7.00541 21.9542
1 25.5887 25.3985 21.4277
1 27.2299 19.162 29.3451
1 24.7869 23.3465 22.1912
1 4.81787 5.80385 24.6112
1 16.7264 5.30473 8.68793
1 16.1732 2.33976 26.6279
1 21.0248 21.4266 1.72754
1 18.9723 4.82712 8.51033
1 4.99429 21.5079 8.38602
1 4.30139 11.5836 15.2306
1 25.3664 21.1654 22.6635
1 2.02956 30.2933 22.8321
1 6.34343 10.83 3.95832
1 8.75876 11.8499 0.41686
1 15.1527 6.72875 28.4179
1 29.7166 16.1066 17.0161
1 19.1913 5.04418 20.4077
1 6.41385 23.6435 3.34435
1 22.6766 15.712 8.36006
1 29.2215 14.9936 22.1282
1 16.121 9.15865 9.69197
1 21.0183 2.37736 25.969
1 3.2974 15.5281 6.95839
1 28.1748 2.49836 0.581274
1 3.39219 29.4283 20.6279
1 12.9413 10.6289 11.0882
1 10.483 17.2085 14.9061
1 1.93155 6.8001 7.91088
1 28.6173 28.1972 14.5392
1 25.648 22.0988 16.1389
1 2.88679 3.91681 6.74906
1 4.80726 8.21268 13.2142
1 17.3106 7.42928 29.6508
1 27.5766 27.2286 28.6567
1 18.2323 28.6747 18.91
1 21.5785 3.34321 22.8941
1 1.50582 13.8563 8.32835
1 17.2229 29.5821 24.3389
1 16.3345 20.09 3.49812
1 12.4769 20.7693 2.77119
1 3.77215 21.8047 17.2531
1 13.5106 21.1318 3.95961
1 25.8886 23.0321 29.243
1 22.2731 20.3663 13.6119
1 28.7906 20.3734 5.0738
1 11.371 8.67216 14.0308
1 22.5929 17.45 28.2402
1 6.68216 4.4549 25.31
1 8.77014 11.994 7.52774
1 27.3546 23.1444 18.4558
1 19.0356 3.58695 3.96163
1 8.21953 15.1135 1.20634
1 2.38708 0.552724 10.6969
1 27.6683 3.1098 9.45113
1 9.33874 12.0978 25.9006
1 10.0689 28.3723 28.151
1 12.575 14.6135 24.4006
1 28.5299 11.2965 25.788
1 10.7923 17.2911 11.4464
1 10.3406 22.1705 15.5408
1 8.97699 10.5141 20.5438
1 1.72575 0.835816 25.0058
1 26.1254 29.4153 8.10617
1 1.95895 28.3496 9.45193
1 2.41288 7.54889 6.83056
1 13.7504 7.86905 11.7467
1 12.9767 8.83682 24.9397
1 1.81982 13.9364 29.2355
1 23.8586 23.8947 24.2612
1 4.1711 8.02401 7.6107
1 26.4416 6.77568 5.51335
1 6.79652 29.189 8.69031
1 5.219 19.0489 23.9794
1 8.24307 1.3456 20.5502
1 19.0576 9.90538 9.68835
1 26.5832 1.29644 20.4141
1 7.47241 6.23092 1.94496
1 23.956 28.3158 5.72892
1 2.19905 6.27096 15.9206
1 10.7691 29.0804 2.24755
1 20.7646 21.7248 21.9581
1 25.5365 19.1955 4.56727
1 14.4226 26.3828 6.19392
1 13.4288 10.8377 14.4289
1 15.5446 13.3434 16.7594
1 19.7943 18.7046 13.4075
1 3.03802 17.738 1.47398
1 15.6685 15.7646 15.8179
1 26.2446 16.7496 24.0332
1 4.54568 16.266 14.154
1 11.4166 15.0844 26.5781
1 9.39456 27.2709 28.2265
1 12.1479 23.3992 14.3628
1 22.3404 22.1711 6.67001
1 6.83197 17.4218 17.5958
1 4.25919 10.1712 27.2687
1 24.7138 16.6326 1.96196
1 4.23264 15.0165 13.4327
1 8.99676 14.6421 9.55109
1 28.4399 27.2764 8.76472
1 7.14076 25.9497 22.5763
1 0.325496 27.3667 3.73207
1 5.13854 21.374 23.0234
1 16.1706 1.79867 17.4945
1 21.9149 16.5123 16.7689
1 28.0577 2.07087 6.24573
1 13.8731 29.6649 23.9719
1 27.9668 17.9737 14.1054
1 24.4357 11.9452 11.9531
1 12.1874 4.80852 25.7056
1 13.7322 27.3619 19.2889
1 14.979 8.43486 21.1445
1 19.0531 26.4358 21.0017
1 22.3429 12.5775 20.6766
1 25.2912 14.2299 14.2592
1 22.9706 30.1115 13.6996
1 0.21539 15.6057 29.3193
1 2.90815 29.2501 14.3654
1 16.9366 21.1157 17.1439
1 13.5788 21.1372 16.996
1 2.18861 23.3411 16.0833
1 12.5539 13.7178 1.69951
1 4.77211 13.0282 29.4104
1 10.4583 12.4214 25.2959
1 18.4233 22.4781 10.6391
1 21.5644 27.9618 18.358
1 12.437 0.803387 15.2692
1 28.5538 17.5814 1.85739
1 12.2956 3.98862 3.37337
1 5.57089 26.1217 28.0152
1 13.5284 1.19335 4.12451
1 14.1702 13.6782 25.8124
1 20.5025 12.1187 5.52679
1 3.74573 18.91 0.866859
1 0.319373 5.58299 17.1905
1 16.3355 19.5691 29.7557
1 23.1182 21.4282 13.2609
1 1.72368 6.03359 17.3275
1 3.80007 0.503944 18.4753
1 24.849 3.17896 18.9271
1 6.81529 19.0641 25.9701
1 7.60461 24.8491 18.4642
1 30.3736 1.07066 10.5317
1 4.52709 12.4892 3.78237
1 15.5353 5.59799 6.56649
1 21.3682 17.2734 26.4128
1 0.712302 16.9268 17.0961
1 13.4035 5.11229 24.7405
1 11.6559 1.15843 6.06962
1 13.4954 2.99938 19.8533
1 29.7601 1.48146 17.9856
1 19.9057 17.4489 25.8497
1 9.6928 22.4276 29.7367
1 22.0887 5.75019 9.00335
1 12.7312 7.99524 20.0115
1 29.2079 25.1098 2.62074
1 18.5351 22.6955 16.5611
1 22.3409 23.0441 3.48721
1 15.1368 15.5617 18.6894
1 12.9196 23.4325 27.8187
1 11.5485 19.0623 28.9865
1 21.9766 27.9277 7.32613
1 10.833 5.10121 16.3649
1 15.9307 26.5613 0.840654
1 2.88761 7.78081 19.0092
1 28.3878 26.6908 27.1656
1 7.75333 29.8972 17.9355
1 29.8136 8.11173 24.9521
1 9.89849 17.2624 10.1847
1 8.49306 25.1431 1.87545
1 24.0834 14.6938 16.5624
1 23.6727 19.008 19.6828
1 21.0717 7.31249 9.65712
1 15.1412 18.822 29.8081
1 22.8492 29.9373 16.6156
1 13.5216 7.98279 27.2844
1 4.26305 4.93889 1.52653
1 28.6059 0.40772 26.7064
1 18.2809 28.2534 10.1608
1 7.03787 1.25371 26.004
1 2.74152 10.0271 2.90206
1 9.7114 0.915137 22.9139
1 6.30798 8.68476 15.4752
1 16.1231 28.1818 17.5794
1 17.7983 20.5219 20.9257
1 5.70839 12.9702 17.8933
1 26.6469 5.68539 18.8581
1 22.1835 27.4575 2.81957
1 8.80356 15.1923 12.0177
1 2.89225 21.8224 4.58427
1 18.527 22.6856 2.76007
1 22.7792 0.520487 10.1072
1 24.82 22.8071 4.17113
1 16.4479 19.4398 19.2245
1 5.34406 4.79876 25.3742
1 11.826 9.55878 0.871395
1 22.2373 25.2939 1.6499
1 29.2514 11.0594 7.1223
1 28.4269 13.2966 7.77925
1 3.41885 7.32939 22.8865
1 28.8087 4.76453 20.5502
1 3.74187 27.6099 15.2637
1 23.4715 8.77338 11.5279
1 8.17101 12.6267 17.1625
1 7.7639 19.2078 2.39342
1 8.81981 14.021 1.94157
1 26.2876 13.7151 17.2887
1 14.5781 10.2482 27.4028
1 19.4494 8.35313 8.26019
1 21.6141 24.0496 21.8789
1 9.24611 3.05611 29.1004
1 4.77406 25.1375 22.3985
1 0.893336 3.64311 21.7928
1 25.0221 9.2364 27.5879
1 8.56158 25.7803 5.47197
1 3.46647 29.6384 1.50143
1 12.2893 2.4528 6.72811
1 29.8047 4.05509 22.2534
1 21.0973 17.2833 8.36243
1 26.3822 25.2044 8.66543
1 19.2438 13.1839 0.474828
1 11.413 21.7122 22.1154
1 20.2122 23.3458 14.0657
1 8.39265 29.2365 10.4651
1 11.3446 26.9487 26.7654
1 20.7079 21.7293 0.345372
1 25.0094 22.4287 1.01942
1 5.79773 8.66028 1.75601
1 15.2905 25.5876 1.58026
1 9.86585 2.23386 22.1609
1 14.1899 12.0952 17.5363
1 7.35686 8.86522 16.8703
1 5.11719 11.9514 20.2849
1 4.50053 3.38978 16.2039
1 8.22196 19.6481 11.5973
1 21.6821 4.81137 20.4734
1 3.34817 12.5183 2.89979
1 12.5744 25.4807 8.63832
1 10.3457 16.7504 5.55185
1 22.3649 11.516 21.7212
1 23.0241 9.63227 15.7253
1 4.06139 4.42797 7.36568
1 5.54266 16.1949 8.70562
1 22.3919 21.6911 2.04929
1 15.1725 27.473 21.5653
1 27.5554 8.26061 21.2584
1 9.40332 6.40372 23.3158
1 12.9099 3.7255 5.55857
1 6.76707 16.7294 8.93829
1 8.2796 8.7445 19.1352
1 15.5049 27.2422 30.0348
1 17.4697 8.37753 2.67448
1 22.4655 0.696766 18.9714
1 8.9969 29.4562 18.5423
1 5.17257 28.3305 0.228475
1 8.03561 7.97891 20.3016
1 28.3521 7.6463 27.1185
1 25.1585 2.70222 2.30225
1 13.9987 9.95874 1.32119
1 27.4351 15.5799 11.1571
1 26.6209 29.0478 27.3087
1 24.0142 4.17777 30.2209
1 13.0913 25.5738 10.0886
1 6.43234 25.6624 0.609365
1 2.0944 20.7677 1.54941
1 18.5612 25.434 13.3358
1 10.6381 10.5143 2.79688
1 16.4153 18.7861 16.5894
1 11.9923 15.4166 6.38327
1 18.7623 11.1621 14.1326
1 10.3911 18.341 12.4339
1 25.9368 10.7885 13.3564
1 25.6255 12.1119 11.311
1 15.1418 2.26789 12.2853
1 11.7891 3.3442 21.08
1 25.6075 29.174 14.2448
1 26.7205 13.8814 22.9608
1 17.01 27.4437 20.7368
1 8.20569 0.254362 21.3815
1 11.7386 15.7523 29.4386
1 14.4827 20.2337 20.7168
1 25.6766 16.4391 16.9325
1 18.1816 4.01824 18.5943
1 20.9358 13.6756 11.648
1 2.05775 16.7021 17.172
1 28.3308 1.34589 2.63529
1 5.27343 24.8154 13.2747
1 8.94472 17.1011 23.4189
1 15.1394 29.206 3.66083
1 9.95849 24.7093 1.94437
1 9.05038 3.76263 2.38838
1 20.5231 26.5299 11.5532
1 20.9437 12.9755 17.8118
1 11.6668 7.31297 28.5861
1 21.1415 14.9177 23.7504
1 21.2391 10.5761 17.5349
1 19.1552 27.8514 24.308
1 24.6222 3.08099 23.8245
1 19.2715 15.2213 11.0458
1 16.6214 19.5213 10.9859
1 22.3439 12.0131 1.81697
1 0.956648 3.3566 8.91577
1 3.52962 12.5681 1.45428
1 26.8172 3.95165 24.1829
1 1.24795 11.4939 27.2778
1 14.8882 0.765799 8.77036
1 12.9949 24.6293 29.9971
1 19.3262 29.2354 20.7923
1 22.5863 3.46725 25.097
1 20.601 15.0564 5.56129
1 14.9033 24.7778 13.1183
1 3.97343 30.0628 24.539
1 26.7854 27.4962 16.3462
1 4.41682 8.27687 23.2489
1 4.75081 28.1001 2.56259
1 11.2473 12.2778 22.3152
1 30.2531 23.1581 24.0087
1 3.97588 0.547641 3.68878
1 14.8729 14.5145 16.2813
1 4.95516 0.878416 21.5005
1 28.8154 3.35076 21.1898
1 24.0296 12.2968 29.2352
1 20.8924 0.789222 2.54148
1 15.4499 5.82172 25.6947
1 18.6457 11.4529 25.5269
1 15.565 26.6475 28.7902
1 16.4018 25.0937 25.2228
1 9.94751 26.611 7.2626
1 0.954832 5.18894 27.1327
1 17.4099 17.9035 25.8926
1 6.71607 17.7115 12.1578
1 24.6967 17.6627 26.0287
1 19.5252 25.3749 23.479
1 30.1363 13.425 2.08631
1 4.39979 29.4992 0.421773
1 1.71074 16.0223 26.6727
1 4.69965 12.0928 8.20582
1 0.594575 6.20687 7.36428
1 21.1748 0.267914 19.5608
1 12.1779 28.8711 4.21051
1 20.1661 17.1013 20.1325
1 23.4019 21.7368 9.86168
1 14.8193 27.8058 20.2428
1 22.5422 8.307 14.996
1 1.53481 16.053 1.77981
1 11.6058 14.2824 23.3193
1 23.3448 20.3285 2.07573
1 18.3768 25.1509 20.5791
1 27.2599 13.1806 1.83526
1 24.547 29.9657 11.7433
1 9.28998 18.4365 9.67321
1 4.00036 9.69709 3.36888
1 23.0358 22.2215 30.1342
1 23.9046 6.911 2.6735
1 23.2244 19.3284 16.9895
1 5.0958 14.862 6.0676
1 29.2733 24.5009 29.5996
1 4.46531 17.386 13.3793
1 9.35501 8.90199 4.5816
1 2.07685 6.92289 28.5706
1 8.08019 15.1963 16.7116
1 9.67621 26.2301 1.9281
1 27.8201 29.3567 29.1903
1 20.3619 13.5619 2.87547
1 4.49155 23.4634 4.45742
1 15.8357 28.851 10.7661
1 3.01128 18.7502 25.0237
1 26.1361 9.09306 22.9683
1 12.2799 16.4541 1.97249
1 11.5853 26.2092 9.50711
1 16.3129 20.9034 10.632
1 7.90693 25.1851 7.96921
1 24.6046 27.8811 20.5708
1 27.886 5.73897 21.1556
1 8.95113 21.3755 22.2467
1 11.1959 21.2971 16.5074
1 5.11118 4.22637 4.99528
1 29.0806 23.3981 15.4121
1 21.6147 10.8206 29.2159
1 22.961 25.0642 18.7224
1 13.069 19.9074 20.5825
1 8.10297 25.9744 4.0424
1 28.8728 19.6397 11.3585
1 21.7132 13.0734 29.207
1 29.3883 18.6062 1.58264
1 26.9674 1.27818 13.9882
1 11.4674 0.296088 2.68806
1 10.1757 18.8111 6.59174
1 14.3338 2.18592 26.5353
1 5.42761 16.1744 27.0646
1 24.5271 4.57667 18.8751
1 7.97576 4.88592 14.8969
1 10.9846 20.1403 6.61119
1 17.1784 23.2431 20.9683
1 3.55948 2.14878 28.8011
1 20.4747 29.7279 10.1262
1 16.2812 20.1021 23.9706
1 0.249134 20.977 23.1086
1 5.00728 12.1717 25.523
1 25.8232 26.9942 3.43601
1 29.8102 11.6507 24.8885
1 14.9989 23.2097 20.0408
1 7.80189 4.89222 7.6629
1 19.389 10.0384 25.373
1 27.4558 20.5107 4.61365
1 23.6939 21.0506 22.8101
1 9.00262 27.5268 24.7414
1 17.736 24.846 2.05463
1 13.0691 22.5034 4.6002
1 16.7498 20.9268 21.7518
1 6.95331 3.00058 19.11
1 11.3058 25.1638 16.0321
1 25.7204 19.118 23.2255
1 14.4685 18.0176 24.7176
1 3.73914 21.8099 15.0261
1 26.4362 26.0678 9.83581
1 8.19639 6.14195 22.3379
1 15.8326 7.33 14.14
1 20.1677 6.47274 10.2509
1 25.9774 4.09126 9.07147
1 13.5722 20.5936 9.6592
1 20.5074 9.82718 15.5523
1 3.2855 20.226 1.15291
1 12.2878 5.4349 3.18651
1 23.1623 27.9618 12.4716
1 5.26779 22.598 5.46193
1 16.8756 22.8739 18.6035
1 0.528264 7.09887 12.6263
1 15.0353 8.20287 16.8899
1 10.4275 5.57277 29.5089
1 1.15119 28.4892 3.51787
1 19.9445 7.3529 27.1958
1 5.91497 11.2489 14.5135
1 4.24655 8.57316 11.9292
1 22.8129 11.6008 25.4842
1 14.5531 18.4094 10.8306
1 0.974808 6.66605 10.1308
1 19.8365 12.5584 8.21753
1 25.693 19.5775 29.068
1 22.5874 16.9001 19.6249
1 29.8603 6.53487 30.0293
1 8.34405 3.07846 14.7676
1 7.52179 23.7012 6.59268
1 26.0538 0.822006 5.2845
1 16.6953 23.4418 0.180395
1 12.601 7.94124 3.98939
1 12.8722 24.6162 11.163
1 23.1282 25.8437 9.47878
1 15.2366 9.8772 13.3062
1 15.5043 4.44228 25.0777
1 9.92556 2.58161 26.2319
1 21.1193 28.289 0.778006
1 17.1585 7.54135 7.9916
1 6.78496 15.8902 3.50107
1 3.30196 26.3789 27.0571
1 17.6694 26.8287 7.5662
1 26.5132 0.203903 13.3252
1 10.9426 11.7848 2.63798
1 7.88829 24.5824 0.69796
1 4.0472 20.9439 28.7515
1 9.44226 30.0139 22.0295
1 12.9997 22.2918 11.4474
1 2.76986 9.1358 10.3266
1 9.23378 6.99927 15.067
1 24.8651 26.1583 0.804463
1 13.0634 24.8923 6.04931
1 6.71016 13.2469 26.3241
1 5.32104 22.2743 14.8971
1 27.7574 16.0105 8.43785
1 9.09471 6.43545 3.89938
1 26.6508 16.0532 25.3895
1 2.24642 15.1661 24.506
1 27.65 25.9654 0.793905
1 7.59743 10.3425 24.9452
1 28.6974 20.7333 8.20896
1 3.5809 22.0658 8.31291
1 17.0648 7.16038 20.5931
1 1.21403 8.26417 13.5986
1 15.1632 4.95632 20.9593
1 22.138 17.1314 5.23081
1 8.59895 22.432 1.98443
1 27.4239 6.69772 0.601327
1 18.3894 6.24662 4.01397
1 23.3529 2.49268 2.37726
1 14.5078 27.4144 14.7913
1 5.76442 22.6144 7.9212
1 4.86375 15.1319 3.44931
1 17.7038 17.3448 18.4372
1 14.385 22.9704 15.6325
1 9.08491 25.2825 23.835
1 9.26455 6.84655 28.1485
1 8.82855 15.9044 15.8519
1 11.3827 0.702987 20.9987
1 7.43869 22.1993 20.1125
1 6.74929 26.8987 9.47587
1 15.6159 4.86236 23.5151
1 30.1405 20.3452 8.26968
1 17.6149 13.3745 26.1497
1 6.76735 0.916964 23.2962
1 29.9146 5.33228 19.7852
1 7.57194 23.1962 1.16079
1 11.1033 18.1572 7.49031
1 24.792 2.27544 19.8747
1 9.15069 7.53164 1.04687
1 14.7965 27.8003 17.3992
1 19.6399 29.0906 22.517
1 22.1746 21.5097 3.80706
1 3.03215 4.73259 28.9148
1 14.9306 6.79129 9.23998
1 19.8684 27.7041 28.154
1 4.78767 2.1681 15.2451
1 20.7976 8.27204 26.9179
1 9.56519 5.21116 2.43121
1 23.0366 0.271448 1.08166
1 28.5084 8.40989 15.6931
1 11.2611 12.4749 28.1555
1 7.51075 9.27606 9.50653
1 18.1562 21.0752 30.0302
1 22.9895 9.93671 23.2665
1 12.1265 4.30531 9.96504
1 20.0232 3.48974 12.3096
1 18.1282 20.2084 9.16154
1 14.6958 15.7857 27.1312
1 28.0511 8.49997 18.4232
1 16.8107 13.8977 12.1615
1 0.330769 8.65456 29.2956
1 13.9876 16.6612 0.659231
1 2.21646 17.551 12.6355
1 20.1051 11.1533 12.6918
1 6.10889 9.54373 16.8962
1 1.95038 6.24499 2.86491
1 19.124 10.2951 17.1348
1 8.59493 10.624 28.5647
1 8.46716 10.5394 11.4191
1 2.76593 4.81773 19.5537
1 2.41711 9.61795 28.2112
1 23.8575 11.8306 27.8117
1 7.35676 16.0866 10.4282
1 9.24858 19.2988 25.0593
1 23.9663 7.79849 20.4472
1 2.80135 30.2483 13.2394
1 16.2476 22.064 5.17882
1 0.268995 12.3013 3.21724
1 11.4893 19.0227 17.7486
1 1.20083 6.55469 27.6213
1 1.61001 7.59922 9.17899
1 3.23127 14.0386 14.9507
1 14.7226 3.82973 19.8592
1 21.1817 17.2025 22.9907
1 21.4954 2.20628 4.81868
1 23.9412 19.505 10.5988
1 25.7197 17.6512 8.47334
1 21.9078 28.3438 27.1574
1 23.7487 3.89292 21.976
1 1.9774 11.5999 14.1773
1 11.1464 2.10505 13.2512
1 16.0734 12.5513 12.5977
1 3.13222 13.063 20.5222
1 7.35925 17.9609 1.28451
1 8.64308 18.9275 18.7034
1 18.9029 18.2112 18.0079
1 14.5988 8.82707 15.5757
1 16.4232 24.6307 3.71805
1 27.4386 1.74345 19.0763
1 2.56064 1.92073 24.3478
1 20.1303 8.81161 19.1807
1 16.0017 6.16066 18.8566
1 20.4447 4.9353 18.2605
1 2.2165 15.2215 2.57852
1 17.863 9.43396 16.8285
1 23.457 6.71073 19.7262
1 15.3914 13.5615 2.42775
1 16.9969 25.0859 10.9876
1 26.954 17.2277 25.9781
1 6.06977 28.441 13.4311
1 9.86298 18.1066 0.354888
1 25.2002 26.7582 4.72407
1 2.35055 4.74505 2.42643
1 20.0852 12.7753 19.653
1 18.3611 24.5376 22.91
1 8.80545 19.1817 29.9431
1 8.76773 3.99432 1.03269
1 29.8541 28.3944 20.1898
1 4.88924 2.29196 24.6524
1 0.925804 14.3561 20.8341
1 27.2746 13.7116 7.91888
1 5.1002 18.1414 7.37448
1 19.1843 21.6723 27.315
1 28.4955 26.3211 2.56732
1 21.4025 8.35408 21.4136
1 6.97367 14.6931 13.0859
1 28.3949 6.88541 22.0405
1 0.296845 0.851621 1.00811
1 7.40563 28.9247 2.84519
1 20.1886 17.566 9.55115
1 21.8259 5.76975 15.657
1 5.35253 26.0579 11.0925
1 21.9966 24.2651 27.9487
1 20.2715 9.63224 27.1634
1 23.2268 19.8724 23.1761
1 6.95587 27.4853 14.2176
1 21.2906 6.25011 22.9715
1 0.571824 26.8768 26.7851
1 14.5657 19.1998 9.56922
1 21.5513 15.4431 2.90041
1 6.83852 14.6992 0.946636
1 10.4016 17.0471 7.99606
1 25.5047 10.7406 0.249132
1 21.8437 24.8346 14.1739
1 6.9592 21.4851 4.35944
1 6.89361 7.03602 30.004
1 19.0832 0.986705 4.42409
1 25.6022 4.95902 24.5575
1 3.05116 11.4721 29.4009
1 1.02125 10.4369 26.4794
1 0.663883 8.78008 3.81953
1 9.63619 19.7775 11.8846
1 4.42752 15.9798 19.0411
1 19.4676 29.7063 26.5678
1 27.8181 5.37619 0.589869
1 3.92815 1.34014 24.0607
1 19.2694 8.01527 5.81039
1 25.8357 28.734 16.7392
1 10.2398 20.0779 10.6346
1 26.5106 5.44136 3.35878
1 25.7376 24.6928 5.55864
1 13.358 12.9396 16.7921
1 0.591021 10.9134 2.47028
1 24.3733 11.5721 23.3981
1 7.92536 26.546 27.6618
1 6.60677 24.8246 15.733
1 20.3305 13.0843 22.0531
1 16.523 22.4772 25.3469
1 14.9932 21.6339 0.475048
1 28.5437 2.37908 4.74415
1 4.86811 2.65543 17.5801
1 0.262296 27.406 13.1471
1 12.1662 12.0897 18.9212
1 11.3661 5.90308 14.0852
1 12.7583 9.39798 1.63902
1 21.7578 5.10499 13.1906
1 29.5112 28.8255 9.38597
1 5.11807 0.717395 0.747876
1 4.85612 11.2358 10.7636
1 10.2484 21.3699 6.9302
1 14.9568 25.0584 15.5226
1 15.7832 13.8002 21.3834
1 26.284 18.6739 10.6807
1 2.68389 5.20221 18.0092
1 12.6008 14.9222 28.7234
1 2.85878 14.1427 26.9575
1 6.22334 1.78218 14.9955
1 20.7995 17.4725 10.9469
1 13.2847 13.7748 15.5263
1 26.6557 18.0136 13.739
1 20.6077 9.70564 9.65459
1 1.44469 9.8818 23.0817
1 8.66992 8.94628 27.2645
1 27.5176 19.832 1.99502
1 12.6838 25.8844 21.5248
1 27.1528 16.6483 19.4956
1 23.9613 27.057 1.63392
1 2.34884 24.8866 25.2771
1 25.9368 5.28318 29.1428
1 8.32116 27.1191 19.2376
1 14.3471 8.55139 8.18313
1 5.36331 17.9082 21.461
1 25.5702 4.5731 3.8247
1 27.088 23.0928 4.60829
1 25.5611 24.8884 13.6451
1 0.586887 17.6614 14.5695
1 13.2646 12.7087 3.51388
1 20.9685 30.1259 15.229
1 14.0031 17.6776 18.7883
1 6.17686 12.5186 8.12634
1 29.8464 1.301 21.3118
1 17.9476 15.3176 16.1978
1 3.43242 22.8633 2.02031
1 11.022 16.4464 9.11628
1 29.7776 29.9605 14.3817
1 2.96923 12.8185 17.5572
1 11.5884 25.8097 13.7158
1 20.917 19.3119 28.6258
1 29.9608 23.7669 22.6107
1 21.5447 9.66233 23.6524
1 22.8662 10.311 29.342
1 17.6432 10.6108 13.3994
1 18.0768 18.0143 4.20945
1 20.3298 28.9988 16.0918
1 26.9908 8.33448 8.4018
1 7.64505 29.9985 4.98477
1 21.9755 30.0782 28.8955
1 20.2879 11.6148 22.6201
1 26.359 7.30707 25.4922
1 29.6141 10.5235 9.82574
1 29.5261 17.1722 11.14
1 11.5923 19.6257 27.678
1 23.58 4.27155 15.1429
1 8.92073 5.7991 25.9042
1 7.79959 11.4781 1.6317
1 9.99694 15.2098 26.5306
1 28.9047 8.10454 17.1312
1 28.1823 16.5641 17.0914
1 4.53833 5.50157 26.9055
1 25.4365 27.101 12.8712
1 10.3852 10.5536 26.9073
1 8.3484 10.5462 9.9882
1 7.6399 18.8558 21.8495
1 17.657 15.7843 19.8981
1 24.276 2.12735 14.4273
1 21.779 7.2475 29.9641
1 25.4989 10.4454 27.9373
1 10.6477 4.09173 15.4386
1 23.7262 24.0882 1.45522
1 24.5852 20.2054 1.80541
1 13.986 27.7762 22.4725
1 12.9721 24.5369 21.6165
1 24.5026 22.8451 24.8738
1 8.92424 17.6409 8.09156
1 2.50885 28.4549 3.66775
1 29.8272 21.4994 25.6792
1 25.6041 2.98324 11.1988
1 27.7163 22.911 13.6437
1 2.52305 24.6267 12.981
1 16.6853 13.2112 20.2063
1 24.5872 18.715 28.8481
1 17.2812 23.3253 6.74906
1 11.7433 24.8286 14.7025
1 24.9523 20.796 19.9887
1 17.4661 24.173 28.4151
1 16.3704 26.4551 23.2764
1 17.5061 22.3647 19.9458
1 16.6414 3.514 25.8529
1 7.87176 9.71133 6.67829
1 25.7656 12.8788 27.1447
1 3.44599 5.75074 15.9211
1 2.39042 5.12503 6.25939
1 7.66237 20.3021 8.88314
1 4.81888 2.5364 28.9259
1 30.3064 3.90626 28.9318
1 25.4358 9.57476 24.1454
1 15.6062 18.6733 2.64904
1 5.82527 11.1839 12.7521
1 12.2812 14.1745 8.6718
1 16.6994 0.38288 29.4689
1 0.285975 0.385031 24.4422
1 23.6625 10.8145 12.7415
1 3.46107 17.122 29.0103
1 2.37747 2.49842 6.96145
1 22.7994 29.677 25.074
1 6.23476 9.43327 20.3502
1 21.6464 25.4864 5.30788
1 29.626 22.3134 10.9844
1 29.318 8.89117 2.35012
1 29.686 2.45749 20.3488
1 10.5544 30.1002 12.5067
1 8.68244 24.4115 20.5651
1 4.02814 14.6066 30.3573
1 12.9823 14.0384 18.7242
1 21.5022 21.6468 16.6139
1 17.2376 4.64458 17.5044
1 14.3038 18.1692 5.65547
1 16.6445 8.28137 10.4724
1 8.59744 5.59545 17.3222
1 2.05692 26.8977 27.3929
1 13.8829 5.89964 5.04469
1 0.804131 2.85107 7.36598
1 13.6262 2.44188 7.33834
1 4.83815 6.5421 3.03006
1 8.4895 19.0267 14.1537
1 14.1061 3.72233 26.8084
1 11.443 29.1197 23.6402
1 28.8526 28.4717 30.0599
1 28.6469 10.5111 27.2836
1 0.775497 18.5283 19.6335
1 4.45765 13.662 25.3137
1 0.926615 28.9107 1.49013
1 4.93345 19.1812 8.49219
1 8.82381 7.83112 11.4674
1 16.2836 11.3161 18.4013
1 15.5957 9.54804 26.5379
1 28.2776 0.212861 19.9751
1 26.2579 17.6541 16.7816
1 15.8424 27.4749 11.4113
1 21.1021 22.922 16.5762
1 2.1018 24.5925 21.869
1 4.3476 24.0425 7.12466
1 21.5702 2.53297 19.8253
1 25.8612 6.57835 24.3379
1 25.3252 29.9028 0.226566
1 28.4315 26.8049 29.7739
1 23.9589 10.0265 21.0126
1 25.0889 28.7916 21.6115
1 18.4174 11.5911 28.1699
1 6.64308 15.0849 6.04507
1 0.204064 11.535 21.7171
1 8.69862 22.1719 17.0159
1 9.54534 5.10611 23.8408
1 7.3653 1.72489 19.5525
1 23.368 27.273 6.70231
1 20.7571 17.4722 5.41146
1 13.4624 16.868 24.3872
1 25.2113 13.8852 26.366
1 16.0865 19.573 6.05538
1 1.02333 5.3914 6.45456
1 22.9499 1.01329 2.50511
1 20.7245 0.955451 4.1375
1 21.7708 8.23299 25.8062
1 24.0698 16.3996 29.5936
1 3.14627 27.9804 20.53
1 3.06626 3.65912 3.39315
1 11.7755 13.5179 21.964
1 2.64151 1.84157 8.19967
1 5.48343 4.62453 11.2895
1 4.92938 20.3438 7.63868
1 13.0611 27.6258 3.43111
1 16.001 11.2952 3.30396
1 24.2331 15.7541 5.11641
1 9.40846 4.78764 25.1553
1 3.41999 15.5091 2.34021
1 25.9647 4.79091 14.8819
1 8.57651 29.5998 2.70992
1 28.7708 12.0248 4.04259
1 25.3446 23.5934 19.8064
1 20.4741 22.5481 12.9984
1 10.0788 8.20815 10.271
1 27.2498 23.9648 28.6843
1 26.863 6.9339 16.7383
1 22.3992 21.0443 19.4402
1 15.0053 24.573 7.38657
1 29.2517 26.0242 8.38953
1 28.4644 29.2727 1.21256
1 0.92374 11.8621 6.84049
1 28.4464 0.983501 23.9786
1 5.02529 27.0276 16.3826
1 28.9137 18.9959 14.1771
1 4.21331 14.9117 4.73613
1 5.33168 7.43843 4.09151
1 6.04518 22.6002 29.3819
1 4.89497 15.4994 30.0888
1 15.1506 8.18448 3.66487
1 16.3563 5.10405 19.9849
1 10.8947 28.5576 3.52912
1 27.0661 1.51482 21.7516
1 5.88027 1.3704 10.7553
1 8.16385 26.8978 17.8683
1 0.629327 18.4097 23.0092
1 19.3085 26.519 17.7393
1 14.5923 24.4967 29.5368
1 8.07245 17.7254 18.3544
1 18.5967 27.9985 1.48453
1 12.4649 6.91874 27.3106
1 15.8173 10.2489 12.1789
1 20.6088 1.44484 20.1737
1 26.6028 26.0293 2.76835
1 21.25 15.814 8.11179
1 23.9968 2.39304 5.56277
1 3.22437 29.5455 23.2016
1 6.4516 29.7754 27.2945
1 6.8322 16.6773 28.9215
1 10.8634 16.7141 28.6916
1 25.8254 3.58744 7.69756
1 9.26094 4.61793 7.99048
1 30.3479 21.4535 21.5479
1 13.0759 17.8454 0.400627
1 12.2469 19.664 21.8711
1 29.4965 2.83676 29.809
1 16.4946 8.12785 22.924
1 2.11286 23.4496 18.5027
1 11.1598 8.96047 28.1608
1 16.8662 20.8293 29.4402
1 13.9457 15.6535 28.4653
1 17.3985 20.9695 23.4324
1 26.1683 16.6065 29.1258
1 25.1614 29.8221 5.36891
1 26.483 26.399 28.6391
1 22.4604 13.5886 5.49261
1 16.8094 15.2784 18.8618
1 17.96 5.30017 23.2648
1 18.1995 2.44761 28.9602
1 3.10034 4.33958 27.0255
1 1.51807 13.1848 20.5045
1 3.85946 7.83752 6.27978
1 1.20379 5.33145 15.0573
1 22.7686 4.97017 2.57028
1 1.06729 25.3566 15.6998
1 15.9374 23.2317 9.74051
1 10.0563 11.8621 22.7716
1 12.6275 0.201447 21.8901
1 26.3336 3.72146 21.3948
1 11.8743 6.02842 1.45355
1 5.68818 20.1733 0.932933
1 17.8072 4.16171 8.87238
1 15.4753 1.93844 23.1248
1 8.38295 23.2161 4.18689
1 7.07708 23.9358 23.0107
1 24.8871 3.51462 10.1241
1 12.6614 7.2812 8.94251
1 1.75006 8.45355 12.2788
1 23.6693 25.622 11.039
1 25.8888 8.96579 19.4964
1 9.35306 29.2966 1.60437
1 24.9187 3.24954 21.4977
1 11.6138 24.3138 25.8258
1 13.4269 11.459 3.35886
1 12.4533 28.3285 8.52101
1 8.70213 15.0033 8.19292
1 5.23622 22.3735 18.9193
1 8.64513 2.52181 21.2757
1 14.149 13.6295 11.4478
1 3.4308 12.7421 29.0156
1 26.578 8.49151 4.18871
1 12.3757 12.429 12.8427
1 24.5551 2.62736 17.6101
1 8.13941 16.644 14.7845
1 0.712499 24.8202 22.4019
1 10.6592 9.61517 1.61635
1 8.9038 9.37928 16.9198
1 0.774319 2.63332 26.2729
1 28.6408 23.9233 3.10441
1 8.07041 20.3367 14.3082
1 22.0549 16.0202 23.5288
1 16.141 3.13113 22.3941
1 24.881 29.3428 2.61045
1 29.3557 25.6736 6.68539
1 17.8561 22.3475 7.72385
1 20.215 27.8374 1.67654
1 22.1481 20.5977 26.677
1 18.2129 8.1626 10.1583
1 3.22123 29.9099 25.7594
1 6.59993 4.50152 23.1195
1 16.4366 26.4897 21.7056
1 3.3903 12.1664 14.348
1 15.1629 20.5532 23.1938
1 29.4793 14.9863 26.0712
1 18.3768 16.4735 29.0333
1 15.9294 28.0708 15.0803
1 13.9715 10.7393 16.9885
1 0.281507 30.3522 22.9912
1 3.36558 1.77459 10.7911
1 21.1854 21.7081 19.5414
1 6.8025 4.14244 16.128
1 24.4078 5.32011 7.86702
1 1.65952 18.896 8.37803
1 5.67318 4.62528 29.5336
1 22.0845 28.1618 20.6128
1 14.8032 23.6617 12.2126
1 8.62228 28.5391 23.9468
1 5.6654 6.82706 10.3319
1 9.15935 30.15 15.7941
1 15.1891 25.6892 25.9794
1 15.935 25.6108 2.90965
1 12.7431 9.75104 26.0606
1 4.80656 20.3488 25.4544
1 6.94055 0.374504 28.3836
1 16.8752 28.7698 9.8227