4096
Atoms. Timestep: 660
1 14.5804 22.1205 14.8205
1 19.2206 30.2344 11.0702
1 17.4721 16.5189 27.4101
1 15.1306 15.2761 19.2948
1 26.8306 4.17472 17.7995
1 8.81113 1.93683 22.581
1 28.5185 16.9373 19.6592
1 17.1566 27.3075 24.6623
1 4.42156 8.14517 17.2498
1 13.089 18.3392 8.40405
1 5.98922 8.10846 15.8476
1 5.61291 2.64055 14.0947
1 13.1516 20.2299 4.77083
1 20.3223 28.6082 10.2728
1 5.51001 19.0619 0.80779
1 5.58355 24.6439 24.2274
1 18.141 28.987 0.645122
1 1.371 20.4368 13.3167
1 22.3184 24.1317 11.7072
1 19.9613 11.1144 13.8547
1 3.75715 6.63358 13.6102
1 28.3661 26.617 26.3128
1 23.5385 2.63845 5.86985
1 12.2919 29.1781 15.1399
1 0.0954889 15.4986 7.67602
1 27.2822 7.96269 8.56077
1 23.6792 16.5693 14.3632
1 28.9828 29.3007 6.20361
1 12.8189 1.14286 6.22813
1 28.0382 4.76147 19.7354
1 0.414713 17.6697 8.0071
1 28.2271 1.99813 6.7901
1 16.1763 6.21274 3.4158
1 2.91299 8.50855 12.6569
1 15.3695 5.21438 28.2907
1 29.2511 14.4466 28.6164
1 11.4179 19.8015 9.86842
1 24.5447 19.0983 23.5917
1 29.2824 1.47847 1.98662
1 25.1245 9.62203 9.35803
1 3.88154 20.1791 7.78073
1 13.1953 13.4467 21.5516
1 12.1198 7.07438 5.89618
1 14.6095 20.2499 30.4456
1 19.1867 20.4142 18.5762
1 30.5513 12.7041 22.7371
1 11.3113 26.8536 28.6561
1 13.6943 3.31915 5.09458
1 5.73589 16.3532 16.3476
1 25.7296 12.1482 27.7177
1 9.66609 13.2443 26.8762
1 22.4641 8.40993 11.8962
1 29.6193 11.4944 5.1738
1 10.9262 26.961 14.5505
1 29.321 28.2181 11.1781
1 19.6889 8.93572 4.62935
1 8.74372 15.0584 29.6344
1 11.482 24.4424 11.3015
1 24.6105 29.5342 20.3598
1 1.46333 7.91929 29.0265
1 4.6046 0.473927 14.9751
1 16.5089 12.515 1.69516
1 10.1024 0.486698 23.9832
1 22.4667 18.7767 6.84576
1 24.5138 9.52714 20.5389
1 13.5033 19.9202 23.2561
1 19.7424 22.3507 9.38042
1 26.4648 18.3395 8.49555
1 21.2994 11.1467 4.28112
1 12.9631 27.0056 8.07069
1 29.0204 17.9579 3.5023
1 4.8358 30.1314 3.50993
1 30.1324 14.4319 1.91092
1 6.79478 14.7628 8.95261
1 28.6121 16.6001 12.0441
1 11.8478 5.91664 14.5731
1 27.4219 3.63461 11.7885
1 22.5275 16.7049 18.9717
1 8.40689 3.42336 8.56261
1 5.09263 7.53174 24.3343
1 11.6319 1.82546 3.5601
1 14.44 27.1902 5.29167
1 6.54142 24.1728 3.54584
1 18.2479 0.588086 11.884
1 16.2236 28.8881 13.4903
1 13.6396 5.24349 13.2185
1 19.8005 12.3853 18.5851
1 27.2585 19.052 16.1564
1 30.1154 30.8263 23.6326
1 2.44334 27.4878 3.09134
1 1.54794 1.6341 29.9788
1 11.8318 11.922 22.2929
1 24.7754 17.902 16.8358
1 30.1532 3.99563 3.19489
1 19.2304 3.40594 9.84786
1 30.1757 12.215 9.92375
1 15.2474 22.4836 17.6755
1 27.1332 16.1929 16.3505
1 21.757 22.6901 25.8169
1 10.9649 23.0242 7.95422
1 27.0267 17.729 6.00605
1 18.9565 9.42836 22.3309
1 12.7542 29.6803 10.7899
1 7.77742 17.7802 24.7599
1 1.20375 7.07433 21.8129
1 29.4137 7.35136 27.3301
1 26.7853 19.9006 28.0544
1 18.9843 14.6698 22.7666
1 29.7886 15.4349 11.9121
1 15.6255 16.5038 19.1774
1 29.6758 26.1067 8.2297
1 9.18116 20.3943 21.2043
1 19.0575 10.9679 25.8253
1 5.09826 14.0888 29.2748
1 12.0697 3.50367 25.7442
1 15.8512 18.8809 1.88655
1 23.0481 6.29835 27.4714
1 16.0383 1.46318 29.8257
1 13.882 12.2607 2.50208
1 17.6491 18.7384 6.7737
1 3.86446 29.8739 14.2801
1 7.30759 6.34101 22.306
1 29.8907 19.6992 24.8183
1 16.6739 1.93016 9.95296
1 11.5726 24.616 22.1408
1 17.0975 13.1629 12.4384
1 8.72365 5.07024 0.975482
1 9.71718 3.50153 25.3216
1 23.6828 23.155 0.764776
1 22.291 25.8541 12.03
1 4.11348 20.9982 8.91681
1 23.5273 28.22 11.266
1 18.4531 0.660749 16.882
1 8.02249 1.68879 6.69965
1 19.5084 15.5147 15.6682
1 7.40477 0.578998 26.2724
1 4.27814 11.487 25.8667
1 10.825 12.7777 27.3146
1 20.4135 7.67058 4.43821
1 24.5281 25.5379 11.2354
1 15.8549 13.8736 15.9245
1 4.51266 20.8739 26.1816
1 16.6934 13.7603 17.4029
1 17.0717 2.03603 21.4111
1 15.5568 10.0878 16.8017
1 3.76069 29.3897 22.2296
1 14.3944 22.2681 23.4654
1 9.76129 17.564 5.26167
1 17.7209 5.99834 11.2842
1 16.3478 27.0439 -0.0188855
1 29.8858 3.72158 25.8623
1 10.4375 27.9604 28.5563
1 15.9778 1.43159 20.9653
1 27.8263 5.05723 8.76129
1 15.1825 12.5742 18.3612
1 7.44102 16.7382 18.016
1 0.891965 6.79058 2.66818
1 22.66 8.03731 27.4504
1 23.2675 15.34 16.3553
1 15.6658 2.11981 27.2192
1 13.9024 8.79727 6.41033
1 2.57589 14.3335 5.0471
1 8.00957 24.3532 21.172
1 1.25781 16.0749 22.9089
1 15.5703 24.5081 24.2208
1 10.6518 26.2315 27.4686
1 3.41086 2.72916 8.40441
1 17.3259 14.666 4.2326
1 24.1664 11.3293 4.62845
1 25.5053 17.3619 20.6084
1 21.4946 4.24765 9.68127
1 27.9119 14.7359 4.59866
1 19.7665 10.3805 28.1161
1 7.44892 10.4694 27.789
1 28.1071 0.956757 9.24756
1 7.63852 14.2535 26.6319
1 28.8308 18.2698 14.1815
1 20.392 15.1582 22.3981
1 6.58756 26.9641 1.90221
1 3.40343 17.7348 3.60763
1 6.57114 24.1781 17.9056
1 26.2498 25.6137 20.5765
1 19.2801 13.2898 19.8125
1 21.4818 29.3797 9.81024
1 12.5058 14.5118 29.7853
1 24.0398 7.92796 7.90261
1 27.8236 24.0781 10.8391
1 27.7716 25.518 14.6639
1 4.16043 7.35856 7.6043
1 19.5158 29.4768 21.2665
1 19.967 8.81718 30.3391
1 5.66166 11.3508 3.67378
1 19.3094 14.5839 13.0044
1 23.4558 4.84752 1.14532
1 27.4916 20.9154 27.2944
1 30.3591 8.78738 17.8519
1 22.7789 9.12128 21.9363
1 4.45262 14.4972 8.51638
1 12.109 9.55431 9.47008
1 10.8238 19.0853 13.48
1 16.7647 16.96 15.6927
1 0.687794 19.0151 28.3871
1 16.5458 11.1204 24.7562
1 10.6526 4.58785 28.7173
1 28.9828 8.07663 28.4794
1 10.5585 5.96396 15.3235
1 18.5694 0.388401 29.8479
1 20.0386 11.5393 9.51183
1 2.75475 14.3369 14.8595
1 0.865232 24.6333 25.2818
1 27.0036 10.2744 14.3772
1 16.1221 27.4898 16.4111
1 9.9298 0.383869 5.78462
1 24.6239 27.9012 20.2167
1 9.18569 14.6062 2.49478
1 26.3848 6.35299 4.50291
1 4.98243 9.22022 15.6079
1 5.85792 16.2437 17.8103
1 16.0198 25.6239 8.63072
1 14.9849 26.7209 13.5079
1 13.5578 7.38758 18.6121
1 4.37221 16.3128 28.4629
1 16.8221 20.9888 14.7891
1 3.98501 5.07369 7.9264
1 6.71258 15.9324 28.9238
1 2.59662 14.6469 26.8781
1 26.1332 15.853 25.8287
1 6.74659 17.1866 21.9544
1 18.3455 12.5686 4.84532
1 2.90005 3.92353 17.4747
1 13.5373 27.6789 11.5713
1 24.2874 4.19302 8.21015
1 16.0618 22.6676 2.93817
1 18.3409 10.6579 22.2538
1 6.67322 1.48754 13.7798
1 24.9803 28.8744 3.96108
1 8.38053 25.7198 27.0429
1 4.60341 23.1314 27.5422
1 4.20358 28.6572 10.9894
1 19.592 10.233 29.8669
1 5.54418 24.8003 12.2427
1 23.1733 14.2022 6.50788
1 21.8452 20.982 20.7995
1 12.4942 30.0079 24.8893
1 3.66506 8.99528 16.2723
1 18.4824 10.8462 7.68957
1 22.5438 15.3177 14.1304
1 25.5629 14.9468 22.0809
1 6.04715 8.93412 5.22909
1 6.98812 28.2769 21.41
1 2.67497 7.73269 1.59425
1 4.72929 12.0201 13.2625
1 17.1195 26.1889 7.86984
1 25.24 8.44478 27.5921
1 2.3334 0.344435 16.5723
1 14.3903 28.1341 15.1644
1 26.741 0.507686 25.1262
1 22.7763 11.7252 13.7697
1 7.23766 29.5612 14.3673
1 21.8977 4.5465 13.9204
1 16.7985 7.47338 13.8007
1 20.6351 12.1554 5.1892
1 20.7903 26.5746 5.99034
1 6.26478 27.0943 16.2598
1 23.157 26.9317 9.35696
1 4.13879 1.85143 11.0003
1 15.9287 1.21815 12.405
1 4.08567 23.9203 3.46845
1 16.2403 1.20603 7.50097
1 14.2494 23.7659 1.5094
1 29.171 5.93598 16.1041
1 6.17766 0.710315 19.836
1 5.05717 5.78657 3.10854
1 24.1684 2.39749 9.71141
1 5.385 6.19115 29.3129
1 19.7078 12.5612 29.9769
1 11.876 15.4585 13.4888
1 15.3555 12.4793 15.448
1 13.2729 23.5817 8.42875
1 16.8173 22.2356 22.687
1 8.33131 13.2576 6.44724
1 15.386 12.1241 9.43898
1 26.9177 11.668 10.9905
1 27.6306 7.64596 12.9469
1 25.5279 12.1958 0.208626
1 20.3858 24.9773 16.523
1 19.0661 20.2012 14.5212
1 8.78795 21.7906 8.55862
1 7.33791 26.6018 11.2095
1 19.0249 27.2184 2.12828
1 2.52216 2.50658 7.36262
1 6.48102 28.9862 26.602
1 16.4833 17.8135 2.53359
1 0.827934 6.0741 17.0022
1 22.022 2.82685 19.0448
1 3.18457 30.5992 7.05629
1 20.9613 27.8282 18.6869
1 24.6927 17.1374 26.8963
1 12.5476 24.6363 30.488
1 27.0781 15.5993 21.4853
1 28.9102 21.1864 3.0169
1 29.4435 11.6967 22.3499
1 6.89885 14.4974 2.43593
1 11.1874 14.5471 20.3367
1 20.7509 7.04281 25.246
1 3.2897 15.3986 24.3771
1 20.3462 18.6505 13.7091
1 9.03251 17.124 0.996403
1 23.0816 0.941716 24.8764
1 4.11575 8.22641 4.65619
1 19.3061 16.779 16.2888
1 2.82562 20.2109 2.6567
1 27.0752 3.86678 15.1446
1 2.31013 24.0331 30.2356
1 26.2262 15.4899 11.9794
1 22.557 27.7554 22.7656
1 7.68158 2.61458 13.8402
1 9.72648 11.0195 15.3357
1 10.9561 26.2762 19.9715
1 8.57582 21.3999 25.7204
1 7.6443 21.2133 11.6343
1 10.8249 17.3005 7.8516
1 17.2573 18.4211 22.8327
1 3.55872 4.18797 3.79719
1 15.0931 22.2016 7.30929
1 25.6991 19.1253 0.166019
1 29.4564 16.9688 28.8249
1 3.66713 12.9604 6.47815
1 28.9931 26.6167 19.1076
1 22.8769 7.75836 4.93128
1 23.7563 28.687 1.42079
1 23.8907 1.67469 6.57407
1 4.06897 18.5098 0.877726
1 17.1934 19.2102 28.9209
1 19.8971 12.6509 7.31907
1 27.8543 23.5113 21.2494
1 0.165128 25.8065 21.7735
1 28.6708 26.5313 4.78752
1 7.4454 5.40831 0.376557
1 5.79454 18.3868 18.6132
1 6.38008 -0.0493349 3.65714
1 13.4769 29.1071 22.4186
1 12.7299 18.816 22.3097
1 25.491 24.8629 13.3193
1 13.0429 2.04676 27.638
1 23.1737 23.2048 14.2843
1 25.4021 19.9404 10.0941
1 8.24139 27.0977 13.2132
1 0.817327 17.0564 22.0168
1 27.7963 18.119 26.829
1 29.5334 5.14151 26.3219
1 6.87149 1.47752 17.2301
1 5.55911 3.1981 12.9124
1 30.1453 1.15498 22.4039
1 2.20577 16.0986 19.8949
1 29.3503 15.527 22.2249
1 5.2833 3.21722 15.2812
1 0.800881 7.06315 5.06787
1 11.144 0.56964 2.07037
1 23.2891 7.59281 9.27863
1 4.29484 18.6637 22.5007
1 17.6332 27.3044 3.05086
1 3.36963 5.83749 28.563
1 18.8722 20.3927 0.56069
1 12.7807 15.9751 17.1683
1 12.6872 21.4037 18.838
1 2.11417 27.6023 4.38152
1 1.54347 12.7318 6.50874
1 6.40429 12.1733 22.9771
1 6.74149 8.29073 6.64168
1 8.29878 25.2605 9.29933
1 27.443 3.59985 6.72852
1 7.32693 12.4371 6.64516
1 13.5944 29.1773 6.27396
1 25.5205 15.2993 6.28158
1 10.8188 23.6535 4.41622
1 4.87015 13.2553 9.26685
1 12.1049 28.8243 22.3542
1 25.9028 17.1427 6.56603
1 19.5548 6.28632 12.3594
1 29.636 13.6359 27.7443
1 17.3356 4.77112 30.3611
1 24.7986 12.5242 3.86562
1 28.599 23.3009 15.457
1 21.2212 9.55247 4.28746
1 11.1518 10.6168 18.9933
1 29.7895 29.0222 26.9709
1 6.65935 25.9379 7.33198
1 25.8002 12.4771 19.5192
1 29.4762 23.9199 6.59507
1 19.9204 28.9968 11.6347
1 21.6467 14.3269 6.60796
1 2.32695 23.4786 18.9419
1 8.83115 28.7283 0.323349
1 26.6763 17.4222 13.4803
1 12.9627 0.310246 0.5525
1 2.12667 12.9833 8.18683
1 22.5079 17.1339 10.7512
1 5.07632 12.6323 26.0945
1 22.7551 24.1636 1.13138
1 10.3957 3.05517 18.7136
1 2.66929 29.388 26.8319
1 28.0739 10.1782 26.8996
1 21.3427 26.0367 13.3073
1 26.4768 29.5579 14.4929
1 12.117 4.51978 11.1909
1 10.5883 27.2029 1.61887
1 18.7348 4.73478 23.5216
1 0.862752 8.36218 5.61706
1 17.9242 0.807347 14.4403
1 11.9929 7.90349 22.2889
1 29.9116 22.5738 26.1856
1 1.11782 11.4715 28.3262
1 2.75026 27.0095 18.1189
1 17.6092 25.6901 19.2689
1 3.48487 11.9856 2.17159
1 4.55199 2.00514 8.68456
1 0.758933 26.2526 24.1869
1 25.5784 9.87721 21.3321
1 5.25874 8.75011 13.6318
1 16.8655 13.2659 6.18283
1 9.87333 2.55953 30.0375
1 9.5594 7.80195 22.181
1 8.54835 5.82534 22.9688
1 7.42571 8.93272 8.57085
1 5.56946 21.0443 9.0459
1 26.5609 13.1472 9.15142
1 11.545 22.3407 24.3322
1 19.2028 18.6 21.3668
1 29.7092 22.8272 11.5832
1 23.4299 25.4593 21.9351
1 14.5454 0.720437 12.1875
1 2.32352 9.42072 22.5877
1 24.7252 7.86905 3.59392
1 3.23982 18.5085 19.8183
1 25.6941 26.8481 27.1192
1 16.3858 20.2494 28.3945
1 10.7449 19.7464 23.1153
1 0.338076 1.88557 20.1024
1 10.1013 19.5795 20.2389
1 4.3035 28.2957 6.66292
1 9.78711 6.04894 0.900603
1 14.09 2.47559 10.564
1 24.0625 16.0339 28.8968
1 8.69033 7.52893 29.7959
1 28.7074 17.0573 15.2228
1 0.914488 11.7632 21.9261
1 7.75034 2.84593 15.2998
1 25.9775 9.93675 5.679
1 19.8697 19.5304 3.76291
1 5.64752 27.5932 0.205214
1 26.4491 23.1494 28.1239
1 13.627 29.8544 13.2371
1 14.8337 23.1811 19.0603
1 8.40306 8.45815 21.7674
1 22.9409 16.5682 8.29274
1 14.15 13.6124 28.1655
1 14.3746 24.486 13.6875
1 28.3873 12.8974 18.0539
1 22.2064 2.75842 13.066
1 7.29992 1.56547 5.3729
1 2.23486 11.4921 13.8319
1 1.12816 18.8871 4.62476
1 25.5897 27.4707 9.4938
1 28.0313 20.0246 16.5972
1 24.98 10.6547 22.4304
1 8.78914 1.65276 30.2877
1 12.7457 2.19367 7.23991
1 10.4669 26.0877 3.90674
1 15.7339 24.6611 14.2868
1 27.5233 18.9862 10.7621
1 6.01382 14.0953 5.49948
1 6.21644 1.00394 12.5483
1 27.6967 24.644 18.9217
1 9.0263 29.8446 17.1151
1 22.2421 5.34888 20.1253
1 29.9232 5.12211 11.2017
1 2.22005 16.9958 25.3638
1 29.6303 24.5468 18.1129
1 28.1439 18.0034 7.00718
1 30.1534 17.849 6.27713
1 14.8988 20.2104 18.744
1 16.9481 0.442794 5.06026
1 19.3929 7.96205 20.3001
1 21.7594 1.8654 24.5092
1 4.40309 4.34545 30.2444
1 21.2791 17.7075 14.2278
1 20.2121 0.121638 18.994
1 28.9029 0.0930811 1.56615
1 18.086 24.0486 15.1719
1 25.3626 29.4281 24.2268
1 21.6029 23.3376 22.8581
1 9.47691 11.9451 21.0503
1 8.71676 14.955 23.6192
1 19.9696 1.18171 10.9404
1 17.9753 18.7203 16.8585
1 15.0663 24.766 29.5452
1 27.3301 25.5608 4.69926
1 11.2265 3.51764 8.72868
1 14.0179 13.4176 22.9034
1 20.4869 23.2528 4.68654
1 18.796 25.0143 5.60827
1 16.2867 20.5672 8.41207
1 0.742143 27.9608 22.33
1 21.2533 25.0818 8.33489
1 13.704 8.15308 3.66586
1 12.3657 11.0786 28.1169
1 17.5871 8.8439 9.85107
1 18.3677 6.12709 25.5646
1 16.6215 10.1295 20.3625
1 13.2813 11.4846 24.2111
1 24.4887 18.6712 26.9908
1 13.1903 10.5227 15.8713
1 10.3685 24.0429 5.71979
1 4.33309 16.9863 0.9889
1 5.42665 2.55015 1.56227
1 22.3325 25.9195 3.14809
1 18.6094 21.8472 26.0223
1 12.5019 13.8303 7.9531
1 12.6675 23.0283 3.33859
1 23.7791 20.1256 19.8618
1 11.6499 3.02575 7.48037
1 15.3082 11.5775 16.8243
1 28.2233 15.5151 6.00023
1 16.6753 24.9968 9.85294
1 23.3374 3.7216 25.5115
1 16.7711 4.19856 4.89811
1 1.71119 26.7242 5.0788
1 10.1777 23.3005 17.4507
1 20.9371 25.7265 20.0605
1 23.6741 27.4609 23.1349
1 16.3303 14.096 1.81314
1 19.8727 6.13924 9.88463
1 2.71489 8.01731 4.28607
1 25.9469 5.671 7.09804
1 26.3192 21.0789 9.98109
1 11.9276 18.7354 6.37466
1 13.0453 22.4101 15.6033
1 4.5164 18.4801 3.30482
1 2.30104 17.2309 14.2936
1 27.727 24.9518 3.29058
1 9.52717 9.67105 5.01579
1 13.9409 24.7559 5.05026
1 19.9916 18.7869 24.4289
1 15.8062 13.6672 24.7388
1 21.4928 8.97784 0.195549
1 18.2686 13.5557 10.3885
1 4.96999 4.21622 5.98386
1 8.94675 0.700952 23.2043
1 13.3143 25.2845 14.9047
1 7.44315 27.0504 7.80518
1 30.3409 25.9637 28.992
1 7.88963 11.8756 11.8637
1 12.0527 30.2959 28.6966
1 7.87043 17.2196 4.09239
1 11.2831 0.663557 14.0449
1 29.8497 3.05285 29.3664
1 1.72525 7.43509 24.2572
1 15.0192 9.65638 29.0651
1 17.7664 28.6342 3.65085
1 4.35213 5.76675 25.9038
1 29.3736 18.6822 17.8436
1 13.017 22.2069 9.08371
1 0.475457 15.2797 18.575
1 2.23028 13.7124 11.082
1 29.1045 2.6604 28.1132
1 16.9657 0.114869 11.8527
1 19.5396 5.12596 29.2566
1 20.4539 11.4282 6.4703
1 6.97761 2.09302 11.2537
1 9.53726 4.96991 14.6778
1 8.18414 26.3875 25.8344
1 10.4114 24.6011 3.47733
1 20.5596 4.11258 3.50065
1 17.356 28.9291 20.5977
1 13.4715 1.81369 9.52338
1 13.9635 13.1764 18.4894
1 8.03529 16.4362 1.40479
1 19.2505 26.3354 10.1961
1 19.2858 6.40755 30.1953
1 12.1918 3.18142 29.8383
1 3.09214 29.9755 8.21317
1 12.1756 6.96565 11.9332
1 21.2817 3.78365 16.2799
1 17.3309 22.6335 23.9395
1 20.1372 12.9288 15.4542
1 29.8668 14.5495 15.714
1 18.045 21.716 24.5892
1 27.642 14.7845 23.891
1 27.4917 16.9978 1.7592
1 26.8493 -0.227362 18.7536
1 17.1632 20.1372 24.7431
1 23.8363 19.8876 3.61687
1 9.42786 27.9575 13.151
1 8.10573 22.489 11.0257
1 9.52751 3.79682 29.1767
1 18.8138 12.9272 15.3433
1 23.4346 8.91725 18.3438
1 4.82022 26.8332 6.44875
1 12.1547 23.4007 16.5089
1 12.6316 15.4132 18.7065
1 25.2015 25.9779 25.206
1 21.2044 6.20769 26.4162
1 11.7846 12.854 8.69094
1 3.88619 17.7375 16.7237
1 28.4466 9.17356 3.82126
1 13.4808 7.73289 5.84144
1 7.64171 10.3132 14.2624
1 12.5966 9.68174 28.6149
1 3.43687 28.4691 28.9017
1 23.1635 18.6371 13.3106
1 22.2715 22.8555 3.26181
1 17.106 15.0792 10.8648
1 24.7664 30.08 16.2203
1 26.4696 21.3321 23.3776
1 8.6994 25.648 16.9294
1 26.8431 22.9272 25.6473
1 29.73 27.5418 0.752876
1 2.02616 30.1852 4.65657
1 2.5398 13.2637 17.6678
1 24.9822 11.853 1.33422
1 28.2712 21.9274 6.81408
1 18.4442 1.61045 24.508
1 18.7577 7.76059 24.0557
1 18.6845 14.6352 19.2636
1 17.1329 3.33392 21.9869
1 2.87063 23.1317 26.1183
1 18.511 12.2738 27.621
1 27.9438 28.341 9.29243
1 21.6442 23.9969 18.0492
1 24.0269 27.1671 10.2067
1 16.9837 21.3677 10.7868
1 14.1503 30.1598 21.5802
1 14.399 11.034 27.0225
1 5.27961 14.9496 17.9108
1 7.23694 27.8017 17.0272
1 5.55629 26.9238 27.2557
1 8.1137 28.6288 29.1209
1 8.57977 14.5736 16.9441
1 5.9868 4.54595 27.1763
1 14.4149 15.6613 0.311301
1 16.2582 0.238562 29.1783
1 23.758 27.6546 12.548
1 1.82998 18.2081 3.20915
1 3.30529 24.3787 14.8925
1 21.6609 3.24332 30.4702
1 24.3759 16.5128 20.8582
1 26.8631 8.02365 29.6127
1 21.0631 16.1173 12.306
1 3.04639 18.8269 -0.036331
1 15.3618 22.2098 19.9965
1 19.824 8.1726 14.5224
1 17.6942 1.8268 1.36786
1 24.9651 4.27583 6.94959
1 25.7137 14.0916 8.30569
1 5.88472 24.9704 21.598
1 11.3883 29.1795 25.2271
1 12.7049 15.4138 5.36008
1 14.0991 25.0264 2.55618
1 11.6246 8.97647 16.1351
1 11.1387 26.2966 17.076
1 10.0479 22.0662 1.65669
1 19.177 8.48322 1.28732
1 29.3827 19.5235 1.23995
1 19.0349 28.4548 4.48154
1 0.837921 18.4039 29.7322
1 26.366 28.6532 22.1266
1 8.98727 2.67478 9.64159
1 10.6273 12.0773 18.8741
1 7.3243 2.73768 24.8669
1 1.28419 16.3226 18.6688
1 20.1784 20.4808 1.14433
1 13.1552 0.500328 20.7876
1 25.0014 16.6323 1.06765
1 19.6894 13.3326 12.5732
1 25.9337 23.5603 5.6516
1 8.89735 0.604739 6.86917
1 8.35306 23.5873 22.2118
1 4.91309 14.9339 23.1055
1 13.5536 23.367 11.2004
1 2.65296 29.3136 10.4396
1 27.2806 10.0127 12.8926
1 16.7117 2.36162 12.8762
1 6.39025 8.04368 20.6631
1 4.34675 7.97299 27.7119
1 16.7168 28.3465 4.66847
1 9.79417 20.2359 5.50115
1 14.9342 8.38319 25.8206
1 6.92067 0.755457 21.2677
1 8.08441 24.2132 12.9117
1 15.105 20.5948 28.8841
1 20.7674 28.617 24.4415
1 11.7291 21.6037 8.19894
1 10.4949 14.1724 6.88731
1 1.06482 28.502 24.896
1 3.20195 11.7971 22.3185
1 4.57091 4.48989 11.2681
1 30.1823 14.0994 5.54335
1 7.06308 4.63607 4.02808
1 21.1617 20.0804 26.3242
1 3.30837 27.131 10.4219
1 1.99708 5.4722 26.5104
1 25.3266 14.5129 13.7609
1 27.548 6.62568 18.1186
1 5.09682 10.2504 30.0677
1 9.00656 27.6282 9.18216
1 10.5594 17.2829 9.30812
1 2.37685 26.1451 2.44373
1 13.4412 16.249 7.42883
1 28.5911 13.7142 8.03616
1 3.38012 1.88178 4.07945
1 14.5792 30.1781 17.3078
1 3.19341 1.63483 22.0416
1 8.9094 20.3641 6.41082
1 27.5363 28.812 30.5044
1 7.83518 22.0897 26.8295
1 10.9246 9.141 5.86413
1 28.9136 18.8902 27.0305
1 15.1191 8.68303 7.33713
1 21.9909 7.83954 9.37147
1 8.79478 24.7332 19.0771
1 14.3874 29.0267 9.37303
1 10.113 20.5576 16.7489
1 27.6675 14.3526 10.4551
1 21.8458 3.21864 25.0112
1 6.42329 1.04197 2.75326
1 5.6319 7.7681 10.1975
1 8.2773 15.2633 21.6369
1 14.2573 7.65041 4.68749
1 7.21684 10.2649 20.8908
1 18.5213 17.3427 27.9044
1 24.9393 7.51824 14.427
1 20.0303 25.9895 23.0448
1 16.8606 27.109 22.1086
1 30.306 22.0004 10.3244
1 13.9163 7.83628 26.3968
1 29.181 4.95166 7.26459
1 27.5821 20.8114 5.98365
1 10.2324 5.77014 11.0261
1 14.6365 0.822002 7.61359
1 12.885 5.59991 17.1299
1 -0.0523115 24.676 26.5588
1 6.42975 0.921794 29.4363
1 23.7148 23.4364 20.334
1 27.859 22.8874 24.5887
1 10.0378 12.6435 13.533
1 -0.0324778 0.764316 20.7695
1 3.8417 6.59749 17.2698
1 12.6265 26.0531 12.9073
1 2.20007 11.3589 9.95339
1 16.8331 11.1137 19.4074
1 29.2049 28.4483 28.3316
1 11.7843 7.02564 17.3972
1 22.2175 13.8812 27.8675
1 30.2269 6.21231 25.0233
1 10.8678 6.21204 23.008
1 2.44153 3.69563 23.8113
1 15.4747 21.2144 1.17692
1 2.61144 2.46339 23.0521
1 15.4899 3.29087 26.4567
1 19.9494 13.8467 0.265436
1 16.3768 7.06315 27.1065
1 5.80662 17.1624 4.94496
1 21.3202 4.99395 14.8585
1 20.8994 4.08358 27.534
1 4.62103 19.0279 19.6947
1 29.8842 24.807 29.5303
1 7.44473 23.9471 27.9414
1 29.7472 0.966229 11.2233
1 4.17789 27.5267 15.4863
1 2.22341 4.28112 12.988
1 6.09943 8.53594 24.32
1 16.3375 12.8518 29.5364
1 3.81217 4.7112 6.35814
1 10.8746 29.1092 15.4079
1 14.6755 18.5723 2.54571
1 25.9024 14.0585 30.0457
1 29.9474 16.304 21.3323
1 1.41948 19.9595 15.7442
1 4.42686 6.77234 28.514
1 5.39003 10.3009 10.6706
1 12.6025 7.19799 14.9369
1 2.62838 13.0557 21.7973
1 0.263138 3.27947 9.09531
1 28.2174 4.14065 7.70473
1 24.3261 25.3506 13.7737
1 15.5622 20.7217 20.0115
1 19.5904 11.7875 21.5366
1 27.0247 0.664806 16.6734
1 27.7167 6.80502 10.6064
1 15.296 23.3135 4.11404
1 8.45316 23.8029 15.4379
1 12.6118 7.89423 16.3036
1 27.5047 15.5982 20.0968
1 23.3966 14.8536 2.41433
1 9.44897 20.7291 9.31783
1 2.32659 21.399 20.2662
1 4.21165 0.96393 9.76492
1 27.8377 2.99409 10.6113
1 23.9003 17.8354 12.4839
1 7.09594 2.80433 16.9423
1 22.1949 17.4408 26.719
1 20.2847 13.4044 17.7256
1 24.792 21.1893 21.747
1 15.5747 20.1611 5.6626
1 17.4911 6.87587 28.0974
1 14.9002 21.9005 2.28228
1 27.5381 13.6689 12.9925
1 8.15506 24.0282 8.32722
1 8.21956 23.3103 26.6616
1 0.562326 5.68722 8.83155
1 18.2609 4.06399 22.2129
1 21.819 17.8243 29.9437
1 5.4706 28.996 6.46262
1 2.44201 19.2943 26.7249
1 15.6224 18.9178 18.403
1 10.2827 15.4382 27.2243
1 30.1471 2.40351 22.5105
1 3.56175 16.5758 7.50132
1 3.85507 11.8664 19.264
1 18.0921 11.3216 23.3678
1 15.88 2.80035 22.9226
1 22.9038 18.8612 15.6924
1 19.5112 5.85948 21.0573
1 20.2839 6.04131 1.28834
1 5.24411 21.3633 29.6107
1 16.9837 10.7172 21.6996
1 20.7295 1.77268 3.62892
1 15.0709 29.4411 1.98662
1 7.46166 12.9901 23.0948
1 4.71386 7.02389 5.4512
1 2.1564 5.70515 21.526
1 3.69421 1.70416 24.6915
1 3.24505 13.7914 26.1052
1 23.2126 1.4448 1.33508
1 6.84278 23.5622 14.846
1 11.1592 4.39332 21.2036
1 8.70237 2.85362 7.25503
1 11.4265 18.4044 22.4953
1 8.29902 16.6981 13.9126
1 1.48174 26.709 26.8617
1 22.3008 17.1097 0.739309
1 12.1714 6.85669 22.9954
1 25.3905 21.1287 1.03941
1 2.46046 29.7006 0.652479
1 18.3903 10.6539 13.8526
1 26.413 16.3995 19.1554
1 4.54017 25.4579 25.8098
1 20.9975 5.98348 18.2095
1 3.70317 17.3193 25.8353
1 13.5388 2.90035 30.244
1 11.811 23.9552 7.67425
1 1.2385 2.25568 5.00585
1 20.0324 20.1841 10.0015
1 30.5371 7.01399 3.83191
1 13.4593 4.68075 20.98
1 3.045 5.66132 12.6115
1 6.42929 30.2436 23.6016
1 16.5304 12.6146 20.0781
1 20.1117 9.60737 10.9801
1 4.62087 23.2146 22.1189
1 4.38426 14.4171 2.05125
1 5.31062 21.8872 17.5044
1 18.5308 24.8331 24.0671
1 9.21174 13.3783 3.30974
1 0.914374 26.4847 22.7013
1 4.00324 9.38883 19.8759
1 1.84282 7.79143 27.7748
1 4.47936 26.153 10.586
1 21.9098 4.97425 17.9886
1 13.9484 1.6419 0.714271
1 20.745 2.42843 5.01601
1 3.15446 24.0917 9.74133
1 21.1113 21.069 10.8606
1 23.3899 4.56963 29.086
1 8.27647 1.63944 4.12058
1 14.1583 0.497342 4.23632
1 3.93449 28.7932 8.28596
1 11.4471 20.6576 15.026
1 28.3787 3.48536 4.76633
1 19.0701 14.024 6.66515
1 1.66544 9.87355 26.0081
1 1.55596 27.1157 25.4692
1 21.4099 22.4093 20.7027
1 1.84773 5.18845 0.826591
1 19.0946 27.6833 12.0134
1 2.85173 17.9352 21.075
1 20.9616 15.0274 19.4317
1 9.59368 18.1084 24.6537
1 6.1292 9.61801 0.6392
1 26.0958 27.0979 13.9173
1 8.58956 12.2691 26.8503
1 12.3937 12.3383 4.43285
1 28.7189 12.7482 0.683812
1 3.42303 16.4387 4.34242
1 26.9423 4.24127 1.04269
1 14.4513 1.5897 26.9318
1 0.0872976 14.1785 24.2415
1 28.7933 6.59782 25.1292
1 17.1958 3.81009 29.1267
1 27.768 20.1887 21.3357
1 19.8655 24.2163 2.50173
1 18.3885 18.6495 27.7238
1 4.7277 16.0727 4.61564
1 14.5508 3.28351 22.5607
1 8.32086 17.2557 28.2297
1 9.11184 18.3609 0.45687
1 3.93746 20.7216 10.3716
1 3.00903 10.3785 19.5276
1 1.98013 25.1809 20.3898
1 0.419501 1.25517 26.3567
1 9.33253 27.2908 25.778
1 7.06614 12.4393 10.0205
1 27.7875 6.42424 23.9991
1 17.6284 29.8883 2.85857
1 6.35025 29.169 7.80094
1 12.8152 27.3721 3.12685
1 22.9369 8.10754 0.120574
1 4.38441 27.2627 0.449307
1 5.76542 24.0103 22.7076
1 23.7461 20.0852 23.8752
1 0.0119473 14.2545 26.7453
1 12.0952 16.1864 10.6614
1 29.7575 19.2772 14.7515
1 8.33548 25.1193 25.1244
1 2.93984 28.3491 23.5705
1 3.67623 23.5368 0.995302
1 1.56437 8.27713 2.35893
1 24.3366 0.579124 29.891
1 14.4041 4.51209 28.851
1 10.3491 12.8531 3.85953
1 22.272 13.4573 11.9119
1 15.9934 2.04241 24.0312
1 21.91 29.9758 12.1557
1 4.64963 10.0555 23.1269
1 28.9986 16.4623 25.2763
1 27.8434 14.9251 7.33814
1 9.31218 11.555 24.1114
1 8.05746 19.4802 27.0379
1 10.551 10.4443 12.8656
1 14.8873 18.7819 13.2342
1 19.1031 12.7511 13.7343
1 11.2283 26.5445 7.97142
1 15.8416 14.8307 23.7045
1 21.0886 19.3061 6.73027
1 27.7082 14.5029 19.5366
1 16.5656 17.9331 6.53383
1 23.4604 21.0388 22.6527
1 1.40971 23.1567 16.7856
1 19.7847 3.95419 16.7928
1 24.6244 22.1186 27.4534
1 9.05343 20.3456 3.95793
1 29.9282 16.6265 10.0297
1 21.919 12.4726 19.5521
1 12.8106 29.1017 18.6067
1 8.72287 25.7719 23.8248
1 6.1953 17.7082 13.8523
1 11.3946 4.55283 2.32178
1 8.44325 20.8189 13.5102
1 0.825467 25.8417 12.9745
1 23.9872 5.52524 24.0434
1 27.2641 12.7692 21.5297
1 8.59102 17.5736 19.9064
1 13.7898 18.2782 21.5143
1 21.8198 30.3791 29.7057
1 20.41 26.228 25.1783
1 8.86853 6.55834 3.19197
1 4.98252 27.055 23.2769
1 29.8198 19.2648 23.3231
1 19.8221 18.8559 10.6161
1 28.2951 0.806078 13.0466
1 4.75043 21.7493 11.1445
1 24.6212 5.33561 15.1326
1 16.6238 23.9368 11.9432
1 10.7303 23.4833 24.8193
1 27.2347 3.74593 23.7889
1 0.341091 18.3085 18.6072
1 25.7715 20.2829 14.0953
1 19.0373 4.80258 17.5876
1 1.68454 29.1136 11.2754
1 12.5967 3.94378 2.54682
1 22.7821 11.4689 21.3608
1 23.1018 19.8985 2.31439
1 15.5219 26.6882 1.98296
1 25.6961 10.1414 28.8898
1 5.53342 0.0381709 9.74414
1 3.27195 29.1736 6.15198
1 17.6958 28.0765 21.5873
1 12.8276 6.06983 27.9276
1 6.36771 4.63668 0.720984
1 1.43558 1.51975 7.28133
1 29.7 2.59989 19.005
1 5.98709 2.47067 25.1243
1 20.7337 23.3905 18.6622
1 11.8727 10.5904 22.3023
1 21.4179 3.03131 12.0389
1 23.4186 7.43057 11.5635
1 7.96203 9.52363 15.3207
1 22.6792 30.0299 17.9216
1 29.3461 11.0627 16.8252
1 0.640265 17.2591 10.5243
1 10.3676 6.88134 7.45734
1 1.88109 5.79436 15.6488
1 26.0342 3.21728 29.2186
1 26.0231 26.2324 4.34595
1 28.2008 3.85076 2.09179
1 7.78261 1.88703 21.6888
1 1.70798 19.3128 22.8083
1 25.227 1.95789 20.5691
1 11.9276 10.1407 16.1257
1 20.3556 9.32252 22.8197
1 9.09741 29.8208 20.6315
1 0.907155 8.99962 11.3918
1 5.62623 11.9016 30.0832
1 9.3927 17.5586 18.679
1 12.1803 10.6935 19.718
1 9.08813 6.26352 26.9975
1 15.5292 8.74912 22.0872
1 10.0642 8.1009 25.8579
1 30.0825 26.8126 17.0256
1 21.6362 11.6453 26.0036
1 22.7191 17.3936 3.27595
1 17.0532 5.59864 7.875
1 4.89127 18.6685 27.4295
1 10.2348 16.5534 1.31013
1 15.2561 20.7364 25.6503
1 22.084 4.44259 8.37663
1 19.1383 16.0502 17.6438
1 11.9561 2.50636 15.8549
1 30.5164 1.96951 15.455
1 10.6753 8.68079 11.4469
1 5.97643 7.69669 14.4652
1 7.7862 24.9623 1.22357
1 6.31159 10.8813 27.2844
1 0.713984 16.915 13.2919
1 5.1414 13.5816 21.3862
1 3.22678 4.75978 29.378
1 1.69197 18.4951 25.8609
1 10.4139 18.3144 26.9554
1 27.2342 20.2383 1.82886
1 7.2238 29.3899 13.0323
1 16.5156 5.13079 9.35048
1 9.1107 1.78462 11.9046
1 11.0105 5.02721 24.11
1 15.1691 18.1902 7.10781
1 25.7569 9.38936 1.37563
1 8.94751 27.7784 15.4054
1 9.38533 16.2933 23.1938
1 19.9849 21.667 22.8523
1 19.5761 16.9301 26.9151
1 2.44333 24.321 13.8434
1 26.1064 3.9957 11.8688
1 25.026 1.2331 15.5669
1 27.7367 22.9084 17.5843
1 13.3545 9.8081 5.66572
1 21.2445 0.997667 22.4369
1 18.2652 28.1143 8.32415
1 6.83922 8.31644 28.511
1 14.6757 27.1244 16.112
1 19.915 30.0018 5.61774
1 5.83405 0.728078 22.5829
1 25.9027 6.18103 26.6664
1 16.0734 25.0555 6.01291
1 27.8362 16.7621 10.9258
1 7.15925 20.7078 12.9782
1 12.2363 19.4898 12.6761
1 14.2519 5.62684 9.32071
1 24.0387 10.5328 16.8201
1 11.769 27.5061 22.9029
1 22.4779 27.734 27.688
1 14.6559 22.0617 27.2474
1 27.5129 9.15086 17.1772
1 0.728356 17.5919 27.9967
1 25.1264 14.9562 4.50281
1 24.6598 20.9985 3.82263
1 3.50614 20.5099 6.46716
1 2.51101 12.0272 6.01614
1 28.3545 11.52 10.9426
1 0.836631 0.246174 24.3779
1 4.93753 6.03718 21.7277
1 14.363 27.3894 25.3902
1 1.12455 29.7028 28.7953
1 5.08918 5.86127 17.7492
1 14.2934 25.7828 15.7345
1 18.778 22.5015 0.0516175
1 18.077 10.5487 9.95844
1 27.0542 22.3238 26.8576
1 7.09677 6.07033 11.1768
1 25.1348 22.2385 12.4972
1 22.6651 28.6748 16.1367
1 24.6972 9.62296 11.7338
1 13.1891 20.5906 0.196243
1 17.3679 5.84037 1.60906
1 18.0307 29.6984 26.357
1 13.1069 3.22398 16.5906
1 23.481 13.9896 4.95348
1 22.0175 18.693 16.7052
1 11.5513 23.9038 28.2375
1 26.8127 17.1525 22.504
1 20.3754 11.3269 15.1788
1 19.3571 15.3335 0.247884
1 23.9188 24.5327 10.4462
1 6.41702 15.401 23.4707
1 1.63246 19.5146 9.12622
1 10.8327 22.9146 20.4424
1 19.2606 12.8105 11.119
1 27.6103 19.1483 8.06726
1 2.44231 15.5981 4.20406
1 14.7889 7.54811 0.507915
1 26.9319 25.291 9.21806
1 4.32177 23.5841 29.8565
1 28.4843 21.2511 16.411
1 22.0121 8.26156 6.45489
1 1.59976 19.9986 5.45768
1 11.5905 29.488 2.49974
1 25.2429 19.0089 14.6309
1 0.57327 17.1327 1.76413
1 16.7916 17.2274 25.9233
1 16.6921 17.2975 30.0593
1 19.1779 17.9704 25.6781
1 11.5313 20.3592 11.4499
1 11.347 24.0484 19.4078
1 10.4549 19.0135 0.913853
1 6.29541 22.8895 7.44428
1 3.44146 12.3931 16.7621
1 4.07522 5.81465 15.1506
1 1.26447 13.9971 5.9739
1 12.8173 18.9401 18.8244
1 9.52707 8.54494 10.554
1 10.8124 17.7978 18.5073
1 13.0634 8.52135 21.7302
1 24.7738 14.4725 0.408435
1 21.7069 8.47288 4.90296
1 2.03788 6.01191 3.15645
1 22.5773 4.64176 16.7571
1 4.22095 5.34841 4.20312
1 24.3876 15.9699 15.5641
1 26.3331 16.8309 3.83561
1 24.1968 6.03291 17.818
1 27.4427 2.3746 26.1657
1 5.56268 19.2231 5.68127
1 5.89799 25.9371 19.278
1 26.1309 13.2515 25.0194
1 10.0713 15.2245 29.4306
1 10.9758 10.1716 8.94598
1 8.97172 3.96606 1.81108
1 20.1072 6.27118 4.7256
1 23.8183 26.3124 12.3245
1 30.1074 20.5369 3.43944
1 18.6326 23.5455 23.3244
1 16.9709 6.87394 7.20439
1 22.7671 25.075 7.97971
1 2.83389 0.227829 9.61781
1 27.1941 16.1942 12.8103
1 3.06888 26.214 7.16026
1 25.0621 0.376228 28.3748
1 2.27292 10.0485 6.9195
1 28.0472 13.0482 5.04855
1 5.5704 27.0632 2.75377
1 9.57839 22.977 8.70671
1 29.954 23.1951 18.4748
1 22.9987 21.2001 1.55379