4096
Atoms. Timestep: 1880
1 6.91025 4.66269 4.75507
1 0.620578 14.209 24.9732
1 4.80108 28.0567 11.8472
1 7.70675 4.16647 0.139135
1 27.2108 15.7882 2.33675
1 9.37993 19.263 7.92746
1 15.8331 4.4656 10.1768
1 22.7263 18.3878 5.47929
1 23.8505 26.5892 27.226
1 24.3954 3.68608 17.2175
1 4.64226 9.24462 25.4284
1 13.1127 16.7028 26.4598
1 13.2113 28.3531 21.7277
1 1.40512 3.67725 18.0024
1 16.7531 10.5034 26.2302
1 11.8659 15.2947 14.3934
1 19.2743 8.66943 10.8878
1 9.1541 10.5009 4.14123
1 13.8016 15.6612 12.8232
1 14.7445 28.6204 7.74948
1 2.52283 0.731424 0.207715
1 13.4795 0.614419 7.53299
1 8.68408 14.5919 22.8549
1 25.0197 4.45581 6.62817
1 5.68922 3.65898 28.2523
1 7.41568 29.5625 1.15366
1 18.3194 8.75263 26.7997
1 24.2529 8.8088 5.41734
1 12.301 23.2718 4.46902
1 1.74024 0.965346 15.4147
1 22.3218 10.8829 21.6858
1 29.8025 21.7039 12.6712
1 29.4013 5.91018 30.2453
1 1.11128 18.458 20.1498
1 18.3378 11.2239 18.8519
1 2.95764 13.362 16.4995
1 5.38494 28.485 19.6087
1 16.7282 13.9369 3.4242
1 8.20083 23.4019 7.17763
1 12.441 21.7827 17.2721
1 24.6516 8.79574 6.87955
1 14.9992 7.92617 26.7891
1 19.269 14.4793 12.2535
1 14.5879 11.453 8.67618
1 19.9927 26.9103 24.01
1 22.4208 5.88702 1.66542
1 13.8034 5.81326 28.8212
1 8.98238 17.2982 22.1667
1 8.26412 25.0794 5.20359
1 15.3873 9.50041 3.23212
1 14.5882 5.32215 10.6788
1 17.6064 17.6427 28.6
1 20.372 27.2145 27.9051
1 16.2881 8.61671 17.4768
1 1.57465 9.68759 18.2493
1 4.41426 10.3278 30.3334
1 19.9188 21.1238 24.1083
1 24.5489 1.17856 1.00816
1 7.86371 30.5873 15.2507
1 21.6868 2.47244 21.441
1 10.7823 29.7254 4.7205
1 28.339 8.29719 21.1087
1 27.8227 30.0849 3.42177
1 6.94844 14.6068 18.285
1 15.0454 18.7096 26.6556
1 28.949 17.4059 26.695
1 27.6693 29.2061 2.2236
1 27.3447 30.1427 27.5521
1 28.069 10.9882 15.1271
1 6.99434 21.6698 10.4715
1 20.4147 25.9807 12.0903
1 27.156 22.1456 21.9325
1 27.6252 2.4308 5.39744
1 18.3785 29.0568 27.6111
1 15.7601 5.39291 5.05945
1 7.45779 12.2211 12.1252
1 25.7721 12.7219 30.4703
1 24.5806 0.680234 28.6079
1 21.8461 1.19772 15.8019
1 12.7546 13.0148 8.98841
1 26.5244 29.0272 5.3064
1 28.5617 21.9163 8.58482
1 20.0167 6.26623 26.9315
1 28.9365 17.9314 0.304975
1 12.3396 17.3906 9.80795
1 7.34622 1.1227 10.424
1 16.5502 7.55149 4.33561
1 17.281 20.0497 0.477274
1 24.5281 25.5796 22.4234
1 16.1606 3.85693 19.0715
1 14.0478 23.2831 16.8946
1 2.2864 18.1129 14.4676
1 25.2869 29.5319 4.49775
1 21.4628 29.9138 23.9959
1 24.7618 7.29149 22.2039
1 8.89209 7.86646 15.72
1 21.3966 22.0524 0.578184
1 27.6821 28.0869 9.35449
1 6.4895 28.8968 13.3165
1 26.758 14.7424 23.2418
1 6.25319 25.7933 17.7127
1 30.0588 24.436 3.36918
1 7.62022 6.44528 2.41002
1 29.0963 17.1189 6.89948
1 24.7786 14.9507 0.2923
1 20.0156 12.2517 1.1688
1 26.5344 6.16634 24.2706
1 23.8874 4.36132 3.33852
1 12.6927 14.9427 10.0651
1 9.52127 2.05016 10.702
1 9.14953 27.021 9.88522
1 11.0418 13.6267 1.96552
1 25.9044 7.92404 29.4481
1 2.65311 29.3752 27.1774
1 18.6321 16.3321 19.4587
1 26.3344 20.2349 16.6386
1 2.65704 22.1648 15.6562
1 23.2227 6.98107 5.78224
1 25.3693 21.4169 1.06689
1 15.6593 11.5289 17.9709
1 23.6868 7.05574 25.7934
1 20.6707 9.29535 27.6631
1 5.86297 4.29931 8.57477
1 9.17723 10.8373 2.75107
1 9.94548 5.58285 27.9361
1 18.9479 5.89923 24.2629
1 20.4193 19.5498 18.8078
1 26.9944 16.4004 18.6543
1 3.50829 22.8991 8.36737
1 12.5041 3.94594 9.74896
1 12.319 27.6895 22.4715
1 21.529 15.9579 25.9251
1 6.48726 26.9431 20.9745
1 1.61052 30.2214 7.36367
1 19.8449 13.6183 13.182
1 3.56439 9.90513 29.2671
1 6.23715 24.47 11.1902
1 23.4471 18.177 16.0122
1 10.9305 12.9067 7.55864
1 26.4555 13.4793 29.3987
1 5.19939 16.0772 28.3482
1 8.6865 9.12158 15.0309
1 29.0425 5.62945 14.3997
1 3.18583 24.7861 19.8108
1 11.7552 9.53097 22.2795
1 13.0783 21.661 26.7196
1 28.6154 1.39052 5.61628
1 0.0757097 12.6902 12.6302
1 8.04494 8.38141 18.4627
1 11.3905 4.00905 11.7305
1 23.8668 19.3846 18.8204
1 4.73628 22.9353 19.9305
1 2.58391 27.242 12.5477
1 26.5739 13.8403 13.1063
1 7.38386 17.8855 23.7369
1 11.0119 8.19703 22.4293
1 1.00036 19.765 12.6895
1 8.82166 5.78587 5.0088
1 6.32297 7.26317 10.5329
1 8.63609 19.4539 26.0352
1 23.0653 4.65393 26.2844
1 10.9651 9.89688 29.0625
1 2.66417 7.99632 20.822
1 2.19159 21.5327 12.0274
1 10.8626 29.5275 29.9221
1 4.73359 3.6693 27.3273
1 13.7669 7.53463 27.0974
1 11.5669 14.6479 22.3544
1 27.4051 3.1887 19.9539
1 11.6412 18.1451 23.1485
1 11.2368 9.8481 7.70326
1 7.85218 5.24545 2.56818
1 18.0429 0.106138 27.1394
1 29.4608 20.5868 22.9053
1 26.9485 15.7458 5.31187
1 6.19519 22.3992 15.447
1 18.0798 20.8367 27.8874
1 6.4119 8.84533 28.5658
1 1.90748 3.16705 5.31081
1 17.5326 0.582118 19.8277
1 19.6742 25.495 29.5273
1 19.1818 21.711 8.89178
1 11.7883 2.70926 21.3589
1 26.0538 29.1867 15.3982
1 11.4362 19.2513 21.0756
1 25.0227 13.3435 25.8278
1 19.5131 14.5927 28.8849
1 6.52657 3.26814 20.8417
1 25.4507 23.1375 6.03469
1 10.8876 26.6681 19.9655
1 17.2957 26.2958 28.2571
1 3.42246 8.89401 9.65613
1 16.4111 26.4202 25.6827
1 27.9486 17.2698 25.3571
1 7.73744 19.3475 10.8077
1 16.0217 21.768 12.6256
1 18.509 20.7323 6.35801
1 12.6845 29.1217 27.5924
1 9.70522 15.993 3.38034
1 13.9184 11.8674 6.10581
1 18.2887 22.7234 20.8819
1 18.8183 2.39993 12.5142
1 29.9522 20.159 18.3816
1 12.198 1.9874 11.7047
1 25.3998 19.3215 21.8469
1 6.69528 12.8892 16.7102
1 19.3771 10.2438 15.1468
1 13.2043 23.5196 8.55213
1 16.6423 8.9649 2.74134
1 4.62913 14.9267 10.2703
1 0.648702 16.1681 0.727293
1 18.4725 5.98112 18.9053
1 20.4848 17.4389 11.1011
1 12.3336 1.66897 18.3684
1 19.1698 16.6336 11.249
1 9.28436 3.11419 1.47664
1 12.4257 4.8392 24.2346
1 23.7426 6.77153 15.7695
1 6.18656 26.206 23.0884
1 14.0767 1.8467 10.1581
1 4.64628 11.1235 6.10847
1 23.409 3.11836 7.83346
1 5.10219 7.18459 1.67564
1 8.97456 21.5577 3.86788
1 24.8811 21.7543 21.5047
1 18.3078 21.6373 9.96715
1 24.9804 9.47797 25.8721
1 18.4722 7.46606 9.22665
1 21.4613 19.5192 27.5862
1 20.6671 4.16823 27.2577
1 3.96203 18.3209 27.7085
1 12.1734 20.5915 20.7409
1 26.3914 15.1207 10.01
1 14.092 4.56981 25.5299
1 8.92352 29.465 17.2634
1 19.908 3.28145 24.0683
1 1.12956 8.97469 2.91511
1 22.9984 25.8538 12.7859
1 13.4837 30.1878 22.2265
1 9.71322 7.19319 25.7114
1 20.5109 11.2435 4.05873
1 27.557 12.6926 2.13925
1 10.3207 9.85275 5.00047
1 4.88523 8.50645 11.5782
1 12.316 26.6257 17.4463
1 25.6726 27.229 3.42417
1 19.6536 19.3333 20.0659
1 27.5229 5.83202 2.54929
1 10.4214 0.86392 4.34028
1 8.37613 1.86397 10.0446
1 25.0714 0.38433 9.36815
1 4.7698 29.6494 20.2441
1 14.1603 24.7389 2.06555
1 15.5633 9.99611 28.7171
1 5.93575 2.66202 10.3917
1 2.60352 14.065 0.959123
1 3.21574 0.237063 2.61792
1 4.65118 1.22052 17.1698
1 20.5141 23.8259 10.2662
1 11.2595 9.32405 26.8651
1 22.782 4.52843 14.8695
1 18.4045 18.9855 10.6327
1 29.7496 7.0144 27.0207
1 2.40378 23.7162 19.9254
1 2.08341 5.70592 5.66774
1 4.32393 1.28614 18.6091
1 8.43381 22.0317 1.06646
1 5.36867 11.3284 7.26259
1 26.8707 14.2985 16.699
1 16.904 27.1569 30.5261
1 28.8079 23.9527 9.68093
1 1.00111 27.5255 6.29467
1 10.9934 16.8898 30.1131
1 5.96787 23.9511 24.1798
1 29.5721 21.2542 27.6425
1 12.9249 10.1909 9.77303
1 26.8322 12.0699 14.9544
1 21.5137 2.5332 2.37736
1 19.6146 10.6179 6.3422
1 17.5172 24.8606 3.23916
1 6.99159 3.88178 5.93061
1 3.91821 19.3746 0.340748
1 23.8436 22.9063 30.5117
1 28.2741 21.4371 25.3883
1 29.2683 6.23308 5.6724
1 16.8025 13.3368 4.83031
1 21.9217 5.15554 22.7011
1 23.3247 15.9099 29.1089
1 8.38049 3.21455 4.07993
1 20.8732 24.6634 25.8771
1 6.77228 23.7536 29.167
1 14.7778 15.5889 20.3318
1 8.15413 7.49492 2.97175
1 11.8656 5.84921 21.4358
1 27.5816 11.4477 25.3104
1 19.1034 11.5827 9.43964
1 2.72793 10.098 9.30935
1 20.2793 24.3226 1.62796
1 24.2751 15.9487 14.924
1 0.549408 21.4371 21.265
1 18.8362 12.4277 19.1748
1 27.4173 29.3464 8.80163
1 23.6007 12.7798 1.08733
1 11.9119 10.9925 9.81387
1 21.8441 20.2364 4.7253
1 22.5176 29.3537 11.4926
1 4.8075 23.88 17.699
1 28.8541 3.74945 22.9441
1 15.7921 15.4709 27.7584
1 18.05 16.7705 1.83135
1 28.0706 14.2205 19.6093
1 10.3581 26.1055 8.17837
1 27.1443 25.9371 29.3579
1 26.4675 23.1083 12.7148
1 11.1081 8.81099 14.8663
1 30.1474 2.25966 29.1507
1 18.964 28.8989 16.9172
1 28.9466 0.642709 3.31347
1 11.7305 3.93789 16.2913
1 23.2194 23.5068 6.12498
1 7.77702 28.8083 4.99215
1 4.28614 11.1406 11.3106
1 18.6433 15.2713 7.39203
1 11.4641 22.6726 23.1999
1 5.20877 27.1226 20.7041
1 12.864 27.4904 9.18446
1 4.68196 23.5537 5.99537
1 18.9549 24.8355 6.58866
1 9.60071 27.5238 3.99556
1 6.10277 16.7294 24.7688
1 13.9655 5.60888 7.7121
1 22.1367 25.7481 5.78938
1 1.2071 15.7207 29.5193
1 28.2988 4.1987 15.5415
1 27.0895 23.4216 21.9501
1 12.3534 21.5213 15.0187
1 16.7411 0.971891 29.7145
1 15.2552 28.372 21.3705
1 26.0606 11.2632 5.18864
1 13.6337 14.1746 12.578
1 25.7968 7.47071 6.92398
1 3.53466 20.3442 20.9384
1 26.5753 18.3407 6.40577
1 14.9472 14.8526 5.7663
1 14.5583 18.2606 22.8139
1 20.938 11.4315 27.2817
1 20.2068 11.0276 21.2218
1 0.323291 29.5898 8.11109
1 22.0111 3.25327 1.26609
1 29.062 18.6818 27.4675
1 18.0171 5.17013 15.4841
1 14.4657 29.6938 24.3821
1 23.0456 14.2027 9.37537
1 13.8857 18.4387 13.4003
1 12.9258 5.5257 20.5547
1 7.92451 2.9079 8.9095
1 10.1398 27.8905 27.063
1 6.79969 16.7875 1.30662
1 2.46874 2.29915 21.5637
1 21.7537 0.294697 16.7967
1 25.9172 25.6572 17.1835
1 20.9127 8.39214 6.89199
1 7.04123 28.6082 6.49468
1 12.5685 11.5562 29.7272
1 23.976 4.80474 28.8643
1 25.1577 4.14933 4.08809
1 6.47915 17.8317 5.78637
1 7.45213 22.7242 16.3585
1 21.9749 6.52159 19.9845
1 20.9795 25.3999 1.79357
1 6.21058 22.8359 5.28917
1 -0.148575 14.7469 23.9304
1 23.7744 2.19114 4.45237
1 15.1673 15.7074 23.2679
1 5.91238 17.3541 9.28352
1 0.118589 12.0463 5.14653
1 5.58347 12.4722 20.9138
1 22.7833 12.9979 7.28966
1 4.37028 7.75164 9.21369
1 4.6025 18.1951 17.4622
1 2.72512 24.0482 0.110437
1 15.7655 3.7758 27.5674
1 0.699077 12.5606 18.1459
1 25.562 0.914578 4.52259
1 15.612 25.8462 18.5905
1 28.9021 20.4442 8.41625
1 24.5158 8.73119 14.6314
1 8.86583 14.0613 1.13541
1 25.7519 15.9158 25.8008
1 2.2082 19.3739 15.1019
1 27.5889 24.2869 5.06153
1 28.895 22.5223 6.17804
1 25.9302 25.7734 1.03256
1 5.07731 4.59865 13.9046
1 8.62972 4.41436 1.39974
1 22.6894 11.8816 27.4442
1 0.662411 20.7847 16.0998
1 20.4934 14.9812 17.9485
1 21.6171 4.01172 8.96585
1 7.33123 13.3722 11.7083
1 22.6031 17.065 29.7816
1 25.5501 2.86415 28.6902
1 8.52897 16.3677 30.0932
1 1.5859 26.0717 3.20572
1 2.0127 11.423 7.05211
1 3.55244 10.3112 27.8206
1 16.785 15.7216 3.51834
1 15.0794 5.76141 18.6801
1 7.28378 10.6466 17.678
1 10.6128 8.8282 2.85663
1 6.02585 18.9853 28.8805
1 5.89183 19.683 9.42113
1 24.9716 11.9099 20.8319
1 27.8368 19.8429 15.0191
1 21.7063 7.44031 12.7505
1 29.2559 0.371022 7.78759
1 18.3445 25.2525 26.2367
1 24.2068 20.0233 17.4498
1 18.172 13.3993 18.1846
1 13.5436 1.50728 11.2593
1 0.896742 27.88 21.3026
1 19.1929 4.84519 20.7998
1 15.7575 11.4177 9.45356
1 11.9634 30.4823 27.6966
1 6.27238 17.0933 17.7103
1 16.029 11.0742 6.58603
1 1.10769 28.0406 24.9086
1 4.1016 24.9222 5.32873
1 12.2293 27.8855 27.9724
1 16.9179 9.44329 16.2985
1 14.3245 24.2694 12.6041
1 11.8532 1.86424 13.0759
1 7.94728 3.15888 12.7716
1 16.8551 18.868 24.3068
1 18.5461 19.2366 30.3753
1 14.9729 22.2209 29.0553
1 24.2901 28.504 4.02721
1 29.8753 13.3161 17.5273
1 9.20184 11.6559 6.1408
1 28.4504 21.9915 21.2572
1 29.7056 29.0154 19.2299
1 11.1246 15.0211 12.2696
1 18.4365 25.1106 19.3091
1 4.62145 16.3634 21.23
1 15.9597 21.5921 10.1546
1 5.51016 18.5059 7.20228
1 2.76085 29.6698 21.8512
1 8.62607 1.85571 19.4411
1 18.7146 5.64611 14.3516
1 27.2416 1.0687 28.2737
1 16.3734 16.3273 30.0868
1 18.8492 20.6662 20.5205
1 20.4706 5.40383 5.67242
1 22.4902 28.5095 8.51443
1 7.32305 6.64635 17.2584
1 20.9023 25.2895 21.6495
1 18.8555 9.96565 1.66489
1 17.4742 26.5171 26.5968
1 12.1923 1.00101 14.0898
1 15.4377 6.60329 3.13419
1 3.47475 15.234 26.6502
1 21.5671 1.05425 14.3172
1 6.33817 21.4537 7.51577
1 29.7134 22.8546 0.994147
1 11.6727 11.4184 11.1587
1 27.1999 0.996144 0.971454
1 21.5444 4.52555 26.2705
1 16.8657 14.9702 19.1446
1 26.7862 6.62721 21.8648
1 2.24414 16.7732 1.45949
1 26.3018 20.8684 1.95146
1 4.90825 29.5858 23.2323
1 0.149659 1.65348 17.8695
1 29.9651 6.12187 22.3032
1 22.5461 11.4972 20.4882
1 9.356 12.2132 15.1551
1 5.48005 1.5452 7.81952
1 29.1324 24.0293 27.8688
1 18.306 12.4303 7.69569
1 7.79217 12.5974 18.9003
1 11.3194 27.0613 18.5624
1 14.6958 29.5907 25.8811
1 4.99074 28.7296 5.52734
1 2.52884 14.4263 21.5878
1 22.1623 8.36384 23.7377
1 13.1654 9.44455 3.22021
1 6.96111 4.18403 27.7309
1 8.70681 22.2536 15.3921
1 0.744066 29.8738 9.62253
1 10.1872 9.4872 6.43
1 5.48596 6.621 19.7325
1 12.8679 29.7962 19.1614
1 2.10493 10.1115 4.85026
1 21.2046 25.6575 13.2858
1 9.08258 12.1805 20.9486
1 3.26197 22.7037 20.3809
1 6.01047 25.9243 7.96141
1 5.39035 12.6091 8.2576
1 9.78758 9.63341 0.857469
1 13.5879 20.2372 1.34246
1 27.0333 5.97909 27.7933
1 6.74081 29.7487 29.143
1 29.3369 18.0652 22.3962
1 9.0156 5.84673 21.9305
1 26.0609 5.01847 11.5056
1 25.5269 6.20213 17.8055
1 26.2184 16.4221 11.9393
1 7.99293 3.19116 20.6521
1 15.1553 16.5902 27.809
1 13.2925 25.2871 17.6222
1 25.1962 8.78241 16.0273
1 25.278 11.9501 28.0954
1 16.8846 0.30379 17.4757
1 7.39719 4.50241 14.7367
1 11.5049 2.46856 2.46015
1 6.98175 8.69742 16.2441
1 24.3476 8.92822 9.87391
1 3.69155 28.3941 4.01668
1 20.7841 10.0159 9.7958
1 20.3238 5.69451 15.9924
1 3.14521 8.95769 1.49363
1 8.20656 22.3052 26.2693
1 18.2378 14.8175 9.92623
1 4.46945 12.2166 18.2696
1 5.69738 28.0069 6.66912
1 6.30626 22.076 11.7946
1 6.2802 7.33333 21.9578
1 26.0218 17.1607 21.508
1 8.24927 30.4143 8.00957
1 24.2784 2.87375 22.9999
1 10.762 10.5943 16.3095
1 13.4211 14.8951 1.78882
1 13.4356 7.77404 2.38991
1 1.30925 21.4013 29.3224
1 10.9489 19.4171 30.25
1 11.2565 4.93927 0.985864
1 3.45094 4.97353 7.90368
1 15.4958 2.17158 8.94674
1 20.3841 23.6214 18.9045
1 5.99272 3.76122 7.19162
1 7.71773 2.73869 25.8323
1 10.5027 23.1038 30.132
1 24.9394 4.99682 0.656969
1 13.8055 4.62623 15.2541
1 19.6087 13.7436 20.8648
1 6.61097 2.8806 12.6803
1 2.84145 29.9076 1.37852
1 16.2472 14.035 13.7576
1 10.0958 6.9129 28.2533
1 0.29699 17.4729 17.1955
1 10.3031 17.5873 12.3942
1 15.1959 27.3341 7.88677
1 11.234 17.8111 13.3024
1 2.54784 23.3452 18.1993
1 30.0689 17.3689 14.965
1 30.2754 29.9686 15.4355
1 3.09625 5.71193 2.05484
1 27.7855 2.00495 27.3859
1 7.77731 16.4379 7.78909
1 18.2057 16.9055 25.3162
1 27.7059 25.0446 19.4952
1 2.80755 13.3445 9.61374
1 5.86281 10.0213 20.9029
1 23.3443 20.9559 1.92913
1 10.2523 7.6444 9.87212
1 4.17085 23.2992 22.9656
1 15.7182 2.47728 1.00555
1 8.28329 0.0779525 21.9129
1 6.43254 28.84 10.3571
1 2.45426 17.6765 7.02661
1 24.1708 8.1715 12.5359
1 15.0893 21.8864 18.0749
1 7.04968 29.4169 21.7887
1 28.118 14.8212 25.5462
1 1.71916 27.7598 11.678
1 12.1826 3.77864 17.7611
1 11.1454 3.215 26.972
1 22.6639 8.46141 13.2871
1 18.5466 9.77582 28.9859
1 18.5583 2.09656 16.3592
1 15.8462 22.8021 9.66759
1 15.0253 25.9276 25.9188
1 4.54913 2.8401 5.03468
1 20.1731 29.1541 29.7785
1 14.0674 16.4842 29.4337
1 25.0059 22.8619 1.17519
1 29.2618 28.3781 27.3983
1 14.4581 26.471 20.8199
1 17.3177 3.06088 11.7061
1 2.06892 9.29569 24.3934
1 8.50977 20.0147 18.6044
1 4.21328 1.69091 13.4035
1 30.3823 21.1536 23.7767
1 7.49186 27.8325 4.02178
1 26.8714 2.37687 3.22515
1 25.6935 5.23591 7.39661
1 17.9477 5.35922 7.59047
1 29.5465 29.6581 1.04654
1 27.8277 3.76147 5.19708
1 21.2146 5.15033 25.0128
1 19.6072 4.43974 3.0117
1 10.6961 19.7833 3.04987
1 29.5897 18.3291 12.7463
1 17.9131 12.2226 12.8544
1 6.28139 18.2424 21.8987
1 8.98012 5.30957 6.55141
1 23.1621 23.2531 23.2275
1 15.3961 11.67 26.8774
1 1.69637 26.935 15.6899
1 13.4831 12.3836 30.5347
1 25.2728 13.583 2.71025
1 25.7051 12.708 21.8441
1 18.2845 6.26414 28.6276
1 25.8619 17.0312 30.0776
1 5.08503 8.80545 14.6298
1 10.7311 7.78133 23.9756
1 18.6849 24.9399 13.4564
1 29.6162 14.0699 4.186
1 8.10958 10.2237 11.6707
1 20.8351 9.83306 4.43709
1 22.0026 11.7691 17.2292
1 22.3988 26.9703 21.2498
1 15.199 9.23276 16.9271
1 5.63375 13.4468 5.84148
1 27.2279 22.9965 1.7459
1 29.4155 23.0886 8.70543
1 22.6886 10.5515 27.298
1 27.6682 5.24201 21.4314
1 14.1404 19.004 29.2309
1 10.3216 1.85421 26.8134
1 22.822 1.40804 5.56745
1 14.1267 11.847 11.3882
1 6.01326 27.7774 12.6225
1 23.8328 16.2912 3.85466
1 24.3419 30.2073 15.4313
1 12.2484 0.506129 21.8396
1 14.3912 0.121808 6.61648
1 27.6607 18.2218 3.14847
1 12.1716 2.06084 8.82413
1 26.4017 3.6029 25.4229
1 5.74843 28.1151 2.086
1 19.6867 13.3558 29.6605
1 19.7091 18.2111 26.6465
1 6.48326 2.86275 2.02058
1 20.2667 0.578201 22.2313
1 14.0459 6.81811 3.32616
1 13.5042 2.1298 17.5755
1 14.2921 5.88886 20.8767
1 1.51988 4.30634 14.688
1 17.1174 9.18946 5.97265
1 12.9035 20.5661 0.0380459
1 26.1368 29.1218 25.0234
1 11.9169 14.662 1.23646
1 27.2779 8.92546 13.6993
1 8.08666 12.2081 25.5027
1 15.313 0.949398 20.7151
1 20.4062 17.6843 2.6694
1 17.0369 20.9463 4.38472
1 16.0278 15.3614 26.3585
1 9.72906 7.72465 12.2606
1 3.37972 19.7423 28.2735
1 27.6314 7.30969 13.4249
1 26.3359 17.4546 19.9997
1 3.24461 20.456 13.0659
1 28.1662 14.9732 10.7954
1 12.6688 7.81739 20.4558
1 12.1618 29.7332 24.2952
1 27.7562 0.927161 9.89255
1 13.4436 23.796 2.52919
1 16.7953 11.3736 4.25038
1 9.0663 9.95553 23.5499
1 13.1666 6.36688 15.2468
1 29.9615 26.1737 7.84306
1 5.21235 15.0458 13.5487
1 13.499 7.21293 28.5989
1 8.92178 9.31137 7.00826
1 5.27788 22.6887 18.5286
1 7.3461 15.8821 12.6088
1 28.1559 19.1751 11.4007
1 21.7051 20.9548 21.6011
1 28.3848 16.1738 8.69201
1 20.7157 2.96885 8.46297
1 7.10686 26.4949 25.2624
1 22.8701 5.45558 29.3069
1 14.7117 16.3346 9.26431
1 18.8164 20.074 2.62875
1 -0.172655 28.5904 22.3044
1 14.7803 12.0989 25.6765
1 9.56238 5.05416 26.6074
1 0.962161 8.04421 8.06089
1 19.0774 11.4884 2.15324
1 19.7534 8.99277 2.02555
1 9.14616 27.7765 7.56429
1 15.9294 28.5523 10.8849
1 16.0213 2.43076 11.3904
1 22.1896 3.36106 18.5452
1 1.07448 26.7237 18.0747
1 29.1457 18.6933 10.3064
1 21.7349 0.208983 28.814
1 12.3466 22.9193 13.296
1 7.73675 24.7452 6.95515
1 22.671 28.5773 13.5642
1 24.1268 18.4245 0.926185
1 8.73071 25.5378 6.48076
1 6.83467 26.033 15.4121
1 9.19056 27.4349 23.3154
1 22.5376 8.88204 19.6935
1 25.1114 14.2658 13.1864
1 4.02735 7.50535 11.7878
1 24.186 12.9082 4.84567
1 6.89577 30.1367 19.2694
1 6.97919 18.5752 27.8008
1 6.76626 11.5033 16.6826
1 18.0458 27.5466 6.7745
1 14.7739 14.4853 15.763
1 15.7597 29.0195 0.101763
1 22.4164 11.7217 14.3022
1 18.3757 16.5042 27.8707
1 13.5738 8.01839 24.6936
1 29.5464 3.81148 5.77214
1 2.8324 18.9868 23.2168
1 17.733 6.12668 11.0281
1 3.80203 14.6138 0.181921
1 29.4042 3.13158 2.77739
1 9.24783 16.7419 24.656
1 9.41857 2.92887 30.097
1 11.2383 18.9834 1.83874
1 12.7957 16.4113 11.9156
1 30.1758 18.6887 15.0655
1 9.14939 20.1594 11.4303
1 7.64765 19.6288 16.4183
1 26.0043 5.78631 26.5104
1 1.66478 0.196311 13.0646
1 16.7969 4.48706 15.3695
1 22.0681 14.1316 15.2235
1 18.7108 22.7098 2.16394
1 7.46425 7.43243 24.9928
1 2.52176 24.7605 22.603
1 6.9491 18.9131 2.35298
1 11.8279 9.6102 18.7038
1 19.154 3.79233 9.03951
1 23.2066 9.11591 14.3637
1 21.92 25.0824 19.2808
1 7.60694 27.5318 18.7357
1 4.84368 27.9989 4.38233
1 6.94375 13.8647 10.2177
1 26.2092 6.08699 16.421
1 9.70803 21.3676 24.6696
1 9.30936 9.81525 28.7748
1 9.329 24.0858 30.0457
1 5.06704 25.0605 26.0791
1 14.2721 2.32224 6.62367
1 16.8902 15.3468 16.1168
1 16.8586 13.5449 18.9748
1 25.8938 11.29 9.97622
1 15.155 1.08521 3.58135
1 17.4553 10.573 6.69168
1 13.0748 24.9402 12.2751
1 7.63454 2.73586 17.663
1 19.8225 18.8764 8.93859
1 29.1586 30.4561 23.5828
1 14.5335 21.053 4.86569
1 10.8029 28.6068 18.5536
1 15.6101 28.3807 14.7561
1 7.50042 7.76943 4.32741
1 28.4053 9.81628 17.4496
1 4.8944 19.3875 5.94873
1 6.33165 8.77802 4.5688
1 9.91282 4.04628 19.322
1 9.88295 1.53114 11.8205
1 28.3719 18.9239 1.42948
1 14.1188 12.5216 16.5955
1 10.0659 13.184 15.8841
1 27.5393 15.0264 1.26926
1 24.5557 2.52381 7.68429
1 18.869 28.2226 12.172
1 7.84454 13.2832 6.94507
1 10.09 11.4041 27.2892
1 1.35613 26.576 1.83154
1 19.2257 15.0726 8.70691
1 11.8916 20.6764 18.4034
1 11.2608 21.8833 6.48471
1 14.0403 17.5148 9.46046
1 6.16357 0.080405 12.9269
1 17.4731 22.9922 5.67293
1 2.85566 23.9065 4.96398
1 24.023 6.29079 13.5029
1 16.8091 29.6105 29.6381
1 0.77055 25.8532 9.94042
1 12.4719 29.4991 11.5002
1 14.2718 5.51217 13.2006
1 6.02265 16.0149 29.4399
1 29.3787 20.7965 21.408
1 12.4796 16.9211 2.29003
1 27.8037 3.75478 25.3434
1 2.43424 29.8169 23.9828
1 11.8509 22.1219 5.06315
1 5.50523 11.6015 26.7421
1 29.863 12.0977 27.2084
1 5.08469 11.0832 19.0546
1 10.3531 13.8324 10.2208
1 8.25073 9.16589 13.5112
1 17.0243 1.9203 20.0265
1 17.6624 29.4849 22.4112
1 30.3436 5.0018 19.5631
1 12.4981 11.8598 13.139
1 3.47645 23.3701 17.1681
1 13.7779 14.8788 23.2278
1 17.7332 6.50858 6.57996
1 27.7751 21.6899 19.2285
1 1.75186 5.92518 1.60246
1 6.12555 15.9608 27.2414
1 5.40332 26.0204 18.7435
1 2.46485 17.2487 5.46033
1 24.4584 10.1908 0.436977
1 0.0679762 11.9266 14.9605
1 6.90481 26.5607 26.8232
1 25.8187 25.0645 2.32125
1 26.5005 27.0974 1.38607
1 20.3568 21.2942 1.05096
1 8.03069 26.596 27.7057
1 19.3233 29.7813 4.09929
1 11.329 23.1598 3.17186
1 16.1481 4.78561 8.76879
1 8.45045 11.4246 5.05907
1 2.76661 7.53516 9.41693
1 5.26609 12.9553 1.10494
1 10.131 18.4178 19.5553
1 24.7924 15.9911 1.19318
1 7.80555 12.4584 2.24437
1 19.9495 11.8049 23.6785
1 27.7887 19.3711 24.0438
1 17.7921 13.8141 5.68135
1 13.5474 16.1809 19.8006
1 5.13297 1.92785 3.02274
1 12.666 1.23749 27.0116
1 6.85535 27.061 22.3894
1 7.3864 29.7724 10.0568
1 23.9353 10.4945 18.8446
1 23.9385 5.791 2.61175
1 24.3799 29.4021 9.42155
1 14.3665 14.6994 0.783171
1 9.98065 10.8114 15.2755
1 15.3529 24.9797 28.0422
1 7.1802 15.802 25.3073
1 14.3982 24.409 15.2467
1 14.4151 1.91813 16.2258
1 16.4754 1.59339 5.55677
1 20.2028 18.0574 5.35146
1 21.7134 27.8005 21.8765
1 6.23118 4.15457 3.47775
1 25.1304 29.4676 18.6884
1 23.4542 8.43884 7.60487
1 13.403 25.8528 28.3687
1 5.10213 6.02457 6.24045
1 19.6541 6.79269 3.62566
1 3.94741 9.29686 14.4768
1 22.4573 1.97392 10.0034
1 26.5277 6.51327 1.75596
1 3.26548 6.07643 15.9617
1 15.6989 12.2769 24.7266
1 20.6597 19.0318 20.9133
1 4.21222 10.8111 14.4314
1 13.4755 27.8587 0.45046
1 15.0908 16.2634 13.175
1 10.5716 2.18248 6.62292
1 1.86422 23.5582 1.14248
1 25.632 3.65194 17.9452
1 8.03193 0.348584 29.2084
1 25.3638 25.2806 11.39
1 29.7076 2.01937 14.1968
1 3.64691 15.4216 23.731
1 9.20831 14.8121 10.114
1 26.4598 20.053 21.3508
1 4.46935 13.224 5.15178
1 3.61773 17.546 14.6412
1 10.4913 16.1333 11.6545
1 30.1554 7.46525 5.80259
1 20.4953 8.80812 10.3104
1 1.82706 23.8635 21.442
1 26.3341 9.05993 29.1549
1 27.3016 7.88162 26.0066
1 8.68939 29.84 9.4685
1 23.5154 9.17888 23.9015
1 5.80718 14.9462 7.96464
1 9.89278 25.6353 16.4879
1 9.13516 25.6771 25.1908
1 10.7482 10.9628 25.1965
1 10.3009 26.0252 17.9305
1 1.5665 29.2941 1.61495
1 7.90754 11.0439 18.8008
1 26.0429 28.01 28.0323
1 1.74465 16.884 24.1329
1 7.68903 14.3844 28.9855
1 30.2322 11.1653 3.79573
1 23.1843 15.8823 17.1882
1 15.8967 8.0834 7.92992
1 16.5476 2.49456 18.8589
1 14.2604 18.9776 24.9824
1 12.4676 17.1936 24.2501
1 25.0679 29.6126 25.9259
1 26.4447 28.0963 6.37927
1 25.3877 10.3706 20.8405
1 12.2778 19.2827 16.5327
1 15.6728 10.6853 12.5695
1 29.0211 28.9029 17.7318
1 27.7962 28.6372 29.5547
1 13.5252 2.20122 24.1697
1 10.4986 16.7816 22.3579
1 24.5631 7.40529 17.8049
1 4.06642 16.8326 20.0211
1 9.04369 17.4572 14.9534
1 29.4883 4.86331 25.8649
1 23.7365 9.15566 11.1013
1 5.34613 11.4008 24.1026
1 5.03571 28.1929 27.9627
1 29.6888 11.7238 13.6522
1 7.88536 11.2981 27.3886
1 27.922 0.996889 30.0654
1 0.515012 23.1228 8.52818
1 23.8127 12.9402 16.5434
1 13.7198 13.2408 20.3385
1 9.91101 23.6773 26.4295
1 13.571 18.5172 21.6747
1 10.9846 25.2808 20.2559
1 29.6947 8.72697 5.33301
1 11.6517 3.97754 7.26686
1 28.118 3.66207 30.2951
1 4.89736 1.49383 23.2257
1 13.129 26.3725 6.51343
1 14.6482 2.21163 24.7785
1 3.8928 25.0148 11.5213
1 27.1297 30.2023 24.9186
1 19.0064 2.73241 6.37647
1 21.4917 10.4577 28.0512
1 11.3819 16.8637 21.1352
1 4.89977 13.774 20.2861
1 29.5053 2.4149 15.7262
1 8.3909 25.3356 11.7611
1 19.2845 2.59145 17.8267
1 26.6919 1.9117 21.8465
1 8.17389 27.9055 28.4665
1 24.4372 26.7878 5.38376
1 15.7855 14.7107 1.48828
1 23.8734 15.2708 11.5347
1 0.929862 8.81445 19.2275
1 7.75079 18.68 29.614
1 6.83609 25.2419 12.4753
1 2.43552 0.764446 8.19598
1 11.6754 29.706 18.4334
1 29.9976 19.1881 28.6654
1 14.247 10.3307 2.55898
1 18.5763 24.0464 21.5022
1 9.38937 15.995 10.6847
1 1.86683 17.3336 13.2226
1 29.7744 0.66221 2.08392
1 5.08684 1.01391 9.06967
1 29.7342 19.3007 2.11038
1 26.5184 12.713 27.3851
1 3.44398 26.6485 22.6188
1 9.65775 27.443 20.6706
1 12.8146 12.546 21.0565
1 8.35951 26.8464 3.70808
1 5.70126 21.621 23.2416
1 12.0771 7.43083 17.4874
1 1.05486 2.7736 0.811104
1 7.54768 19.9697 1.43052
1 18.7365 24.5143 29.2056
1 1.78173 19.5149 10.2986
1 22.9221 25.5539 15.1971
1 15.7004 15.816 10.0562
1 8.81008 21.4126 17.8251
1 23.8449 13.8993 28.2585
1 12.1424 27.3277 6.31837
1 7.53941 22.9171 19.9855
1 7.58803 25.5522 4.06426
1 1.8191 17.522 19.3195
1 23.7744 23.5759 17.8984
1 23.7483 10.6257 9.18177
1 25.8676 12.3104 2.87758
1 18.335 20.3335 13.5755
1 14.7585 16.7688 2.72944
1 0.420788 9.16077 26.4054
1 19.9645 21.3583 26.8085
1 12.7323 6.65887 9.69236
1 19.355 10.4631 30.1929
1 25.6473 23.5611 14.0365
1 16.4666 24.7507 21.5173
1 27.6358 17.6217 16.2978
1 3.6947 12.7904 13.0938
1 4.96729 20.7921 9.50763
1 7.75222 22.0265 3.7818
1 14.3577 17.2158 26.7022
1 29.8824 20.822 17.0704
1 10.6315 2.23162 20.7074
1 22.8452 20.9015 17.3123
1 25.0621 5.82459 1.88065
1 16.7758 6.92454 23.0659
1 7.2276 29.9512 7.04495
1 24.7711 26.143 28.344
1 19.6449 24.9903 4.42496
1 21.8729 17.6573 9.24259
1 7.41364 29.7466 12.935
1 28.6596 18.7581 24.9723
1 12.8647 16.4852 21.4047
1 24.5272 7.77066 4.5827
1 15.667 13.7586 22.21
1 0.933944 10.4479 19.4652
1 17.258 0.805474 7.97769
1 11.475 27.4416 29.3074
1 6.87023 28.3685 22.7014
1 24.9401 7.6273 1.22752
1 12.2952 1.52181 5.58064
1 22.0505 15.0648 1.04779
1 9.26607 23.3605 1.11017
1 15.8103 26.4251 28.12
1 20.8219 7.48654 8.19978
1 12.7575 15.3153 26.5748
1 4.36243 9.67097 10.861
1 15.8721 5.85516 15.0784
1 3.18746 10.9495 17.0241
1 11.1689 8.41491 7.67618
1 10.9359 13.6256 27.1983
1 20.6869 11.2116 17.3903
1 26.5359 17.7859 27.1729
1 17.6412 29.6394 5.949
1 14.5004 4.34417 16.55
1 4.85575 17.1431 22.4608
1 16.8677 15.0305 9.02383
1 13.7909 12.6027 3.87317
1 0.910964 7.4332 13.7552
1 21.3147 21.1448 15.1124
1 8.9965 24.3982 13.9358
1 7.65986 4.72756 23.6056
1 14.6836 7.30853 24.4094
1 9.20617 30.0675 25.2828
1 23.6676 29.0544 10.5326
1 4.73801 20.0022 3.12482
1 28.934 11.4578 15.9456
1 19.7603 2.22444 20.4915
1 4.69315 15.4429 5.90434
1 27.5694 4.54535 1.13225
1 1.70429 8.53997 26.7838
1 19.1487 22.4508 11.918
1 12.0179 10.1827 21.1337
1 0.372565 24.1106 21.619
1 9.11436 18.1307 4.04404
1 22.7581 3.91321 6.69711
1 29.7444 16.4823 13.8576
1 12.7488 19.0512 7.83441
1 1.01141 15.1254 14.1082
1 20.9025 25.4435 30.0374
1 0.824138 30.5467 2.58176
1 23.4302 16.0177 27.772
1 21.7186 3.61525 4.79839
1 4.75161 21.1672 17.9388
1 11.6296 2.2971 0.830847
1 4.52673 26.1506 27.9163
1 28.6054 4.81581 24.7599
1 29.9679 18.403 20.4826
1 0.573544 8.35008 21.8373
1 28.1626 21.777 27.4363
1 9.85914 12.4528 9.89444
1 6.91738 3.73917 25.3058
1 11.1279 6.34965 10.2499
1 28.5708 24.2242 14.064
1 25.681 20.5555 4.17049
1 3.15062 29.6656 12.3655
1 3.20714 18.8281 20.9851
1 27.7144 13.4706 24.5634
1 3.40901 20.3104 22.9412
1 5.29694 6.65805 0.503057
1 1.13624 26.6541 27.9578
1 3.43275 17.98 22.3319
1 25.0361 24.0327 10.7099
1 15.2794 24.7423 22.3609
1 26.843 8.13296 20.6749
1 3.46145 3.54425 8.3962
1 1.48235 16.3588 4.87124
1 15.0018 22.376 0.445288
1 14.1122 27.8045 20.7782
1 15.4967 17.3325 17.4823
1 5.55815 18.3204 11.6061
1 21.5483 26.1989 23.9873
1 27.4629 9.71349 15.2129
1 15.7799 26.896 23.3095
1 24.5832 21.123 10.1861
1 10.1059 18.6524 0.958039
1 16.47 10.6786 10.4188
1 25.7462 19.2243 11.0543
1 6.0006 11.5983 3.88149
1 8.91223 7.64046 10.8464
1 4.31623 11.0777 26.9508
1 18.1422 21.6546 13.8211
1 0.723416 5.57095 23.3212
1 7.89522 2.3233 13.9881
1 13.8413 20.2505 12.4906
1 7.93744 12.7836 4.49407
1 0.521776 13.4428 4.60324
1 16.4207 14.5146 7.7753
1 6.16017 10.0624 7.73724
1 23.3082 19.578 11.4325
1 13.6133 25.9016 11.0405
1 23.6863 3.84771 27.6417
1 2.55815 16.5863 20.4915
1 20.3971 27.7938 29.2823
1 27.4728 13.1093 28.7279
1 29.0472 16.5575 28.469
1 5.78498 1.67422 22.2515
1 13.7734 22.9161 13.3141
1 22.0237 21.0788 12.368
1 13.5363 13.1617 25.0907
1 14.6487 26.7347 16.406
1 11.3219 28.5242 11.425
1 10.3753 29.099 22.4033
1 26.6931 19.0033 17.1114
1 11.5687 21.3528 19.5816
1 3.70261 18.4642 10.0437
1 29.2748 12.5493 10.3732
1 24.0525 18.6943 26.7546
1 29.4645 29.2807 10.0602
1 14.4901 10.9228 18.4725
1 29.5033 6.11026 4.15804
1 22.5314 13.6286 30.3265
1 20.9301 5.68854 19.0485
1 24.5422 24.3054 9.38753
1 15.5721 16.6122 7.90418
1 8.13851 21.0187 21.3877
1 3.26322 15.1195 29.1381
1 4.25744 29.6702 3.11841
1 3.57924 11.2606 13.0785
1 29.0215 6.09487 8.94585
1 29.5195 21.3021 13.9855
1 3.93758 4.64916 6.46183
1 11.1866 27.4112 12.6523
1 19.3915 23.8753 15.9746
1 27.2838 21.6331 23.1468
1 17.9786 6.95108 14.234
1 28.441 3.63906 11.8208
1 4.33535 22.0214 27.0806
1 7.85465 6.60412 0.889574
1 21.2252 3.37092 28.4119
1 4.64737 7.99146 7.74462
1 25.6885 1.8451 13.9137
1 17.8629 0.202374 18.4254
1 1.00277 20.6678 7.95752
1 15.9966 20.3525 28.1291
1 24.0679 3.56423 12.6714
1 1.97111 7.83445 19.6035
1 21.4217 18.749 2.49892
1 25.7929 8.16332 24.2254
1 20.1523 0.137666 18.7365
1 5.57928 29.3937 16.019
1 24.042 1.57673 17.7644
1 4.82325 15.5049 1.02316
1 9.5833 29.362 18.4974
1 6.56346 26.8149 14.2639
1 18.4004 5.29472 30.461
1 16.9369 20.2967 12.0922
1 27.5418 12.0844 19.0077
1 6.27638 6.6644 27.9878
1 5.13499 18.4191 10.1493
1 15.8305 7.49335 2.18776