4096
Atoms. Timestep: 480
1 18.943 7.24056 13.8332
1 14.3822 29.9273 23.1011
1 8.76506 13.506 3.91958
1 17.4108 3.3121 24.4171
1 1.06626 21.5995 3.86016
1 15.0813 17.5977 22.3298
1 23.0826 27.9079 4.86368
1 21.9983 1.66517 7.88885
1 23.7744 5.84047 9.31233
1 17.8993 12.1253 0.500134
1 19.3454 10.3009 22.2282
1 29.5835 3.6486 24.415
1 12.0542 1.14479 14.8048
1 13.6707 2.76163 30.0352
1 26.6572 23.4714 12.6951
1 9.76756 25.4616 25.4403
1 25.6956 25.4497 15.4258
1 6.03963 18.1093 26.7445
1 30.327 5.78703 0.421064
1 5.69878 29.0369 17.1655
1 2.66388 23.883 10.5722
1 13.6184 23.2646 17.2821
1 14.5291 15.3631 19.0344
1 4.82447 22.0188 25.3579
1 6.4838 8.29473 10.3969
1 23.5366 10.8806 9.98304
1 16.5586 28.4796 7.86799
1 5.51668 10.0762 15.1194
1 21.3029 12.5155 22.8428
1 5.56899 18.6871 23.8846
1 8.30293 23.9044 10.7404
1 3.38929 10.6343 0.829579
1 18.177 23.1605 11.0093
1 9.6356 8.81572 21.213
1 2.5822 26.318 10.8702
1 10.025 28.8409 19.4158
1 22.9273 8.48708 12.8157
1 17.0832 19.0886 22.1662
1 7.71497 11.8504 2.92076
1 1.63418 10.5399 18.7341
1 21.4719 6.07601 18.7791
1 27.042 19.5936 7.01364
1 8.81117 16.6697 18.1125
1 19.1161 20.6529 14.4394
1 18.8045 4.62955 4.51365
1 21.0947 3.74995 19.878
1 12.515 4.54659 19.6233
1 12.4536 7.47911 2.73554
1 13.0616 20.8827 10.5909
1 16.4431 0.751975 13.3093
1 14.5484 4.91205 12.4092
1 21.7438 28.5153 16.7715
1 10.1707 17.7307 14.3612
1 9.71708 12.004 7.28293
1 8.38727 22.5668 28.2635
1 16.6788 11.6439 12.368
1 6.01367 11.1245 17.2807
1 9.49411 26.2232 29.5629
1 8.50639 27.4348 29.3274
1 29.5086 7.21619 29.0709
1 5.60666 6.29608 17.4756
1 1.97423 25.0436 10.8103
1 19.9294 18.8124 13.1289
1 7.11201 14.5081 2.00778
1 4.63069 3.00534 7.83821
1 21.515 24.2759 13.33
1 21.3213 17.657 24.9142
1 22.0996 20.733 9.93457
1 25.93 30.1582 15.4415
1 21.831 6.11704 7.40387
1 16.9718 21.4684 23.5474
1 25.0047 30.1937 28.8525
1 2.87349 6.47436 30.5001
1 10.2297 25.7415 11.4545
1 26.4641 1.32033 5.46821
1 21.6929 2.35904 30.1021
1 28.5933 2.36185 6.55475
1 30.0531 24.4957 23.316
1 2.98579 12.7661 0.378464
1 2.06845 28.8422 20.8761
1 13.761 6.72831 0.915059
1 15.7426 18.1722 20.3298
1 11.2971 11.7274 17.342
1 28.8888 21.4157 0.984443
1 24.2418 2.08265 9.24363
1 29.8911 24.5486 16.531
1 26.7976 4.68791 22.2456
1 2.83279 26.1287 30.1281
1 10.6451 6.55642 24.196
1 24.5138 11.3795 21.3675
1 19.5488 26.59 4.02901
1 6.38946 5.15089 4.93327
1 21.3584 24.6667 22.8112
1 27.7977 13.1442 9.75589
1 25.4509 21.9744 4.04685
1 13.0932 25.4934 6.12573
1 21.7752 20.4013 6.80239
1 2.98438 0.873853 4.26601
1 22.5267 4.02614 15.6896
1 8.58437 20.9189 30.0318
1 5.71007 2.33716 8.87157
1 5.55057 23.2289 21.3809
1 14.2785 24.9086 19.53
1 10.2211 5.29654 3.95478
1 19.9761 21.5191 22.3101
1 29.6953 19.2863 0.686927
1 0.991098 9.99758 9.95068
1 11.0157 1.46912 27.741
1 9.93228 2.67794 11.6927
1 18.6594 20.8185 29.5787
1 10.0012 15.7235 8.79444
1 16.5155 26.2084 21.8645
1 26.9634 29.1955 15.6166
1 17.9395 24.0539 4.8033
1 26.0073 15.4964 24.8837
1 24.4015 16.3604 13.0146
1 14.9156 21.7141 2.76621
1 27.6345 22.3711 3.8866
1 15.8124 27.0686 9.62807
1 18.7941 10.4121 11.3119
1 20.8208 4.32617 22.2532
1 24.3094 21.3186 3.87061
1 23.987 30.7225 10.8055
1 21.268 20.9486 22.1507
1 8.12916 18.5121 4.34037
1 15.3539 15.1079 20.167
1 30.0525 19.1038 9.99862
1 13.6501 18.353 16.0053
1 15.7176 23.2299 18.6616
1 0.722001 1.59924 10.8723
1 27.9095 15.8956 21.2637
1 9.22952 13.7089 15.0108
1 11.2398 24.0043 19.3478
1 14.1892 9.19669 6.90426
1 13.7008 27.4248 17.7684
1 18.5492 3.29336 22.121
1 15.8145 9.19375 17.2737
1 24.403 2.13316 17.4952
1 14.5938 17.0388 24.7105
1 28.3201 24.3556 7.23161
1 21.5707 1.01647 27.7342
1 12.6231 24.5645 21.6614
1 19.2033 26.9221 0.227806
1 12.5951 23.2697 9.94976
1 22.3398 23.2018 10.2532
1 24.1713 29.3483 17.6347
1 29.1982 11.4946 15.0346
1 22.2241 11.8016 27.0041
1 17.5202 5.98562 11.8656
1 16.928 18.7085 12.3171
1 29.2824 24.7597 27.7918
1 0.54948 23.363 0.163336
1 21.3823 14.3905 3.15822
1 16.0553 30.5876 6.23096
1 2.81184 23.1029 6.88943
1 19.1356 4.919 9.97552
1 11.9451 20.9264 11.5533
1 9.05487 4.60664 29.7245
1 9.88878 21.8903 1.4486
1 29.3409 16.1222 21.4507
1 23.3458 26.374 1.34655
1 4.86874 24.5922 10.5521
1 6.75336 18.3161 14.2901
1 12.435 0.278539 29.1697
1 17.9364 26.9827 14.1943
1 2.18238 12.9513 15.6083
1 16.5162 6.56814 -0.0398807
1 17.6155 11.7044 22.3453
1 17.1802 11.3754 17.0593
1 7.54611 16.2724 26.4763
1 7.96855 26.0891 2.01699
1 11.3812 6.04263 16.3466
1 18.317 22.2106 19.949
1 28.5574 10.5025 21.7532
1 22.2926 7.74864 8.55507
1 18.1538 15.3413 20.5347
1 3.30576 16.4886 10.009
1 7.54085 25.2572 7.61127
1 22.5834 17.2233 15.9141
1 0.0484817 15.6873 6.81299
1 8.33339 10.1399 13.6779
1 29.3589 3.45657 19.9632
1 8.14511 12.7461 14.9995
1 15.9992 3.3464 7.69495
1 28.2682 28.5337 4.38209
1 26.6015 9.48451 9.63303
1 19.6504 2.28155 8.51504
1 15.2488 22.0343 15.7055
1 20.6761 11.3575 13.6546
1 0.0744904 10.1163 6.52654
1 12.7714 19.1597 4.68532
1 0.633196 9.45758 0.667708
1 27.86 13.267 21.1724
1 12.0213 8.70919 16.6671
1 17.2352 0.887291 20.5106
1 29.0833 28.8274 1.99736
1 0.387712 26.2767 14.4104
1 5.28167 12.1571 13.9141
1 6.53305 2.83342 9.94371
1 17.9361 17.3659 1.87812
1 1.6627 22.0563 22.3675
1 30.5485 27.8442 3.95101
1 19.0756 16.6169 1.68344
1 12.761 2.5364 8.58207
1 29.1873 20.5856 6.85699
1 14.2558 6.3347 20.8851
1 17.7958 28.1583 17.5412
1 26.5854 18.4184 27.7272
1 28.5026 21.0021 21.6859
1 9.34915 0.668233 24.2841
1 22.1536 9.78783 13.6988
1 18.2576 29.8063 24.7854
1 16.3954 21.8561 28.2731
1 22.5608 0.0887318 9.45567
1 5.66629 20.5171 12.3955
1 7.65634 10.3842 18.8071
1 26.7615 20.9303 25.5864
1 5.7985 0.447463 24.6729
1 2.91759 7.79441 2.61475
1 9.84193 9.60076 1.0219
1 20.4414 1.6306 2.00321
1 6.83584 17.2341 19.0294
1 22.6523 7.81699 19.7239
1 7.51826 26.3693 3.72528
1 21.851 15.8502 6.54291
1 26.8248 12.0585 21.6022
1 17.0638 11.4369 10.167
1 23.9756 29.2619 23.1338
1 3.64685 15.6546 3.32395
1 29.3558 29.8641 28.6017
1 7.96389 30.5218 18.0383
1 15.5516 9.18484 6.07776
1 9.82375 15.8432 15.7914
1 2.80827 7.59048 10.6235
1 1.48859 1.80587 19.2623
1 25.9898 21.8186 15.8339
1 25.6614 3.83881 5.54118
1 1.17837 8.03038 11.956
1 16.7533 7.50994 1.31777
1 29.3585 27.3371 26.0033
1 22.0873 5.72983 20.1233
1 19.0237 5.86447 26.2637
1 0.916347 14.5971 6.62618
1 15.2828 28.8493 22.9891
1 16.4628 16.9352 1.89249
1 14.4658 22.3785 9.04825
1 4.1428 23.7486 16.2649
1 15.715 19.3605 2.40919
1 24.535 26.4419 24.12
1 23.4194 20.2439 12.7006
1 28.9654 21.5901 4.38901
1 10.9301 7.48021 16.2174
1 21.8361 19.4693 28.6647
1 9.96075 1.21968 26.4011
1 3.88029 11.4514 9.95916
1 30.031 24.7416 18.9224
1 15.8152 5.79079 4.68274
1 5.43144 16.9454 2.47773
1 25.9074 28.2395 7.56855
1 26.0632 3.2066 13.3157
1 5.46771 8.76261 3.12697
1 10.9795 24.8551 28.4053
1 11.1321 15.761 27.3228
1 27.7476 13.1338 27.9288
1 7.95371 19.7567 10.841
1 11.9901 15.5774 14.9309
1 15.6129 5.21625 17.751
1 4.30021 4.00735 0.506988
1 24.5474 3.47741 10.0511
1 0.89047 26.5448 4.09271
1 4.80248 5.50181 8.39887
1 13.2535 6.87849 7.31483
1 12.6667 3.77038 29.9954
1 0.208199 10.7561 1.23647
1 25.5648 22.4026 22.5186
1 4.64916 13.9352 12.1407
1 26.6284 1.14401 2.80997
1 7.45048 2.55787 11.785
1 6.57446 21.9227 15.7048
1 9.47881 2.7331 20.1286
1 15.7981 12.1469 8.45255
1 30.2202 0.356721 20.0693
1 8.8792 2.60846 2.2669
1 22.2835 26.6585 7.32705
1 3.28054 6.09027 15.4628
1 11.6415 0.619319 30.1791
1 22.4491 15.82 18.8429
1 24.8884 19.9014 3.55183
1 15.3522 28.9903 6.03726
1 15.8336 8.9372 18.77
1 15.4938 13.3831 15.6467
1 18.5585 16.7907 11.6427
1 1.50683 18.5408 0.32202
1 16.5721 10.6945 15.1009
1 23.9573 13.9467 24.8045
1 4.99328 15.3586 11.9552
1 9.1627 16.091 26.0498
1 6.87461 21.5362 3.05818
1 17.2558 27.2174 16.5527
1 19.2659 22.0969 7.30799
1 7.72213 19.4707 20.6343
1 1.35765 7.37076 28.6526
1 23.3505 18.904 0.770601
1 6.40002 14.378 14.2805
1 4.84827 12.6684 11.6436
1 28.4638 26.7451 6.75958
1 7.04247 29.6699 28.5378
1 1.13948 25.2874 1.65417
1 9.65755 24.0037 25.3688
1 16.0263 29.3158 20.6635
1 21.2147 17.2525 15.8662
1 25.2259 2.06769 2.95558
1 14.8943 21.6521 27.9896
1 28.7839 18.8383 12.9882
1 24.3033 12.0097 9.7954
1 11.1748 3.54064 26.2113
1 13.2887 29.2927 16.7823
1 16.1914 16.4955 16.4737
1 20.7257 26.366 14.7328
1 23.1173 13.3871 18.9066
1 25.81 16.1191 12.6662
1 22.3175 28.0724 9.8305
1 2.1492 14.4116 27.9719
1 5.24973 30.3899 11.6346
1 15.8553 22.034 18.1627
1 13.7614 23.095 11.1144
1 5.03693 23.9767 13.5789
1 10.2884 14.2304 2.0479
1 8.16032 6.95527 29.652
1 13.6095 7.85314 22.7614
1 17.0685 24.5386 15.7518
1 20.9354 27.5605 13.9648
1 11.7462 3.34977 13.9049
1 27.3657 18.0659 0.30138
1 12.8125 9.55047 3.72883
1 6.89918 23.8182 29.526
1 14.2473 8.7644 8.26074
1 15.6136 10.5472 26.2282
1 16.9431 3.06697 4.58237
1 3.32667 23.9668 1.12151
1 0.840937 1.0921 17.8919
1 18.147 22.0359 26.6927
1 23.2172 21.6739 13.0518
1 4.8663 4.94575 14.3977
1 4.82513 25.1668 16.3769
1 1.33049 3.26686 18.7946
1 2.90835 21.8475 23.7241
1 6.61588 22.3721 20.5121
1 26.4016 4.18 29.8852
1 3.15862 15.3014 -0.198943
1 12.4658 6.08114 8.10938
1 21.0925 14.2117 27.3113
1 30.613 17.8621 18.6125
1 11.5612 5.19651 23.4071
1 11.8402 6.87659 5.28585
1 15.8793 0.972594 18.1473
1 3.84049 3.58335 18.3638
1 20.0215 22.8443 21.826
1 14.3628 23.7609 28.9499
1 19.4105 29.2282 7.22121
1 8.4655 10.9568 23.6172
1 27.3645 25.5791 1.89317
1 21.2952 23.4729 16.5957
1 17.8055 19.7235 1.14038
1 10.7362 15.9855 19.9749
1 12.262 26.3899 3.66741
1 17.6241 18.3486 0.786801
1 16.3914 25.8734 4.41432
1 16.18 7.39683 18.7335
1 9.60335 29.6528 5.82499
1 6.26256 6.90415 13.6791
1 26.3597 22.8851 28.8851
1 7.02952 1.22699 17.6474
1 29.6337 3.6526 23.0054
1 6.32741 15.4292 8.61919
1 9.53543 0.322332 0.622061
1 22.2774 14.7396 16.2029
1 25.1122 19.2852 18.7107
1 21.7786 6.1476 3.09359
1 17.0987 16.2152 25.125
1 19.6994 27.0771 16.2447
1 8.21345 7.85513 1.2961
1 2.92623 2.68615 6.13207
1 0.764735 0.660015 0.345145
1 19.3971 23.0761 10.2593
1 7.83144 3.82021 26.4945
1 27.1203 9.61048 2.86581
1 11.6465 1.65571 20.8932
1 6.13765 7.0352 18.689
1 11.5877 1.87884 17.0136
1 14.4543 25.3247 10.0723
1 5.75232 13.4586 16.5075
1 30.0387 1.17976 13.3545
1 20.4256 26.9819 1.00639
1 8.65025 15.8986 11.3251
1 3.80413 25.6346 3.36124
1 16.3454 14.1083 29.6503
1 20.3048 26.841 10.0667
1 18.9639 22.1588 29.1909
1 19.6067 17.6802 22.6381
1 7.26942 11.6472 29.1848
1 12.2802 4.3386 0.984576
1 15.6905 24.129 29.1937
1 30.4759 13.4085 6.4071
1 26.3496 11.8237 6.88382
1 4.74986 5.21706 27.7219
1 30.1918 2.89303 21.0927
1 2.06636 23.7274 13.8606
1 22.7974 6.91116 7.28557
1 10.0857 14.5513 24.0573
1 7.49888 19.9609 12.3931
1 8.76314 12.8706 2.53922
1 27.2393 10.6855 13.613
1 10.8811 3.07506 1.30917
1 19.3145 11.7813 4.93477
1 24.0007 24.1903 18.0138
1 8.65984 5.81575 29.029
1 5.70047 27.6874 20.9994
1 6.66124 1.67562 26.6594
1 25.4757 5.76609 28.6451
1 6.50865 25.3928 6.6219
1 1.17566 27.8564 2.04944
1 13.0454 1.45551 10.7102
1 2.9953 4.82132 25.9643
1 17.4822 17.4149 11.9346
1 1.39361 29.4127 7.66674
1 15.0941 14.9969 28.7006
1 10.5756 23.086 23.545
1 17.473 22.0366 11.1045
1 5.95781 24.1503 10.0148
1 15.2838 19.6323 29.6524
1 17.431 20.8466 0.0936035
1 24.7247 26.1225 1.35787
1 3.73201 13.248 3.18881
1 12.5041 1.07937 7.7295
1 3.40119 2.95579 21.6937
1 8.49322 9.97866 16.2445
1 7.91986 3.95026 16.2134
1 6.62938 12.5614 24.0707
1 2.80949 29.8758 23.4958
1 7.24 19.6944 14.7487
1 24.3839 5.9775 11.9297
1 1.61692 14.3516 3.44675
1 13.9467 28.0896 7.96879
1 12.4561 16.5715 10.4848
1 21.2092 11.0113 19.6718
1 23.6982 10.9995 18.0138
1 6.23646 29.9939 8.89725
1 4.4726 18.0269 2.72411
1 16.8636 20.047 27.1274
1 11.2975 30.3958 28.1146
1 0.12956 9.64413 21.2695
1 10.171 6.84631 22.8926
1 9.67987 6.22326 8.23888
1 4.22411 15.3683 9.89291
1 3.94709 10.3244 28.0566
1 10.3789 25.6512 2.37483
1 12.2623 10.1896 1.36944
1 22.8571 6.81739 20.5906
1 13.7272 0.296865 16.7773
1 5.84349 29.6577 3.3018
1 1.52546 4.86733 25.9022
1 24.7129 8.75713 0.909913
1 26.3942 8.92791 29.648
1 16.1371 5.22387 0.711826
1 26.5166 15.9336 9.37268
1 26.3067 27.5622 26.8787
1 29.2656 3.03095 29.6534
1 12.9874 25.9433 7.57477
1 5.72476 23.8554 3.54683
1 0.866661 20.8162 0.769029
1 17.4656 26.7426 11.4676
1 6.35456 9.86191 3.42735
1 16.104 18.2022 16.8228
1 15.5863 18.2767 6.29311
1 21.5729 13.4098 13.6405
1 8.76719 19.7539 12.9906
1 27.0071 12.0257 12.7109
1 23.8294 13.3602 9.91096
1 20.2139 6.83148 18.7832
1 10.4882 29.4385 22.4642
1 30.3393 26.4121 10.9831
1 27.3054 14.6964 0.780229
1 22.0421 25.3688 19.1224
1 9.24793 26.3197 18.6431
1 13.3328 17.2763 28.2519
1 7.72129 21.518 23.9406
1 24.4412 15.4819 15.9584
1 19.8659 3.17763 11.8576
1 19.4949 15.6547 10.1945
1 28.6945 17.4908 15.81
1 25.4749 27.1073 2.09554
1 5.34833 22.383 15.7291
1 8.84139 22.1869 24.992
1 7.35097 2.44095 2.03877
1 12.5353 6.19907 9.71255
1 2.09159 5.63296 6.90875
1 18.376 27.7491 12.0148
1 17.9357 12.3427 12.6694
1 6.78747 1.75746 30.3344
1 21.3839 13.6566 23.7475
1 22.1245 11.0804 14.2169
1 20.8958 2.39334 23.1309
1 24.0091 1.77855 30.1231
1 18.3782 18.7619 8.13704
1 12.5396 18.942 15.3761
1 23.0176 12.5203 0.157402
1 24.6522 4.36648 7.56169
1 1.19404 11.8329 1.45345
1 29.8926 4.51855 27.5007
1 3.67043 7.24942 28.3378
1 16.8868 4.47353 13.8129
1 11.1053 24.2081 1.49151
1 19.6634 6.95292 25.5059
1 18.1566 6.13338 29.8594
1 20.6036 15.3452 3.93318
1 16.7221 21.1189 12.0289
1 4.03296 25.9452 21.906
1 27.9332 26.1933 16.5798
1 7.58273 6.14404 19.1232
1 7.46311 28.8897 5.64201
1 11.3343 10.3679 22.2512
1 1.17619 19.412 22.2675
1 2.88079 29.2083 6.16629
1 18.9104 19.5162 22.4404
1 5.58071 29.3382 18.7898
1 28.937 0.607352 20.6148
1 21.1028 13.8258 30.9609
1 19.4825 0.814386 1.25914
1 22.1123 6.62234 28.394
1 18.9818 13.2154 26.1237
1 19.1364 1.75687 25.0044
1 22.4663 27.2477 16.3082
1 8.61707 25.1192 11.177
1 29.3537 2.24447 26.4438
1 16.1847 23.1979 25.1084
1 8.23612 17.6598 12.9218
1 26.2223 17.0294 24.9906
1 21.028 27.7088 18.5646
1 25.1512 13.6136 0.702403
1 27.402 28.4372 26.3449
1 0.654706 14.7553 24.6408
1 1.5667 9.96007 6.96638
1 29.6045 4.57721 2.30731
1 23.7802 29.3867 19.7537
1 12.444 7.68107 9.57404
1 16.8748 24.1786 14.4262
1 23.7944 23.0097 9.89007
1 18.8383 1.27688 15.9842
1 24.5569 11.6842 13.3682
1 30.2122 16.7399 0.42067
1 15.3713 12.0415 25.9414
1 22.2141 21.679 0.699
1 19.0387 23.9064 21.8907
1 20.1258 6.23733 1.36961
1 20.275 27.8476 7.2681
1 4.6256 23.9542 8.2335
1 3.18051 11.8421 2.97346
1 15.1247 18.2051 29.4909
1 19.1196 9.58469 4.00588
1 22.8512 19.5846 15.884
1 2.36924 14.5537 6.92462
1 30.5951 22.422 28.104
1 2.12959 16.6063 9.43327
1 14.7294 12.2405 7.61153
1 5.56321 3.88294 27.0969
1 8.33012 10.7332 17.5394
1 9.05028 27.9211 6.43358
1 2.31318 21.8196 27.5985
1 16.0519 11.4855 28.8592
1 4.89965 19.3939 6.45041
1 17.307 23.1552 13.7367
1 5.01846 19.4304 17.7962
1 28.5366 11.7327 24.8417
1 11.6111 10.2017 28.7986
1 8.07576 21.4078 12.7664
1 12.5031 26.8882 13.8829
1 7.54074 26.178 8.87554
1 28.6078 29.0705 21.7476
1 29.8183 2.33838 22.3697
1 9.88937 18.2618 22.1297
1 12.2476 20.4007 23.2096
1 1.35765 29.7961 0.994974
1 2.42003 20.0756 20.2445
1 21.1605 7.04873 2.28005
1 29.0766 27.6177 19.1315
1 12.1764 21.9097 20.4343
1 8.27427 27.5157 3.97112
1 28.6834 19.2571 9.78075
1 18.9437 12.9827 0.707711
1 28.3033 19.095 0.407457
1 28.3451 30.4585 10.6223
1 13.2513 5.01531 5.80222
1 11.1718 18.6946 10.5815
1 15.1268 29.5766 30.1338
1 6.34051 19.7858 21.0748
1 26.3517 6.02932 19.8833
1 8.89836 6.84013 10.2871
1 13.7471 23.4747 3.7598
1 14.0783 30.4707 19.3306
1 5.49921 0.578952 26.8934
1 16.8472 29.9481 3.44213
1 16.8422 15.936 21.4094
1 30.4885 20.1752 22.3721
1 3.66281 12.6846 23.2709
1 20.9976 25.8153 1.40839
1 2.17603 9.42946 24.5174
1 20.0925 23.9672 19.5237
1 6.91486 8.47885 11.9141
1 23.0754 11.539 21.1778
1 26.7288 21.3182 4.22666
1 25.9655 18.7347 21.8357
1 11.114 26.1284 26.3418
1 10.2777 27.5285 5.54522
1 14.8261 21.6397 4.39462
1 15.3628 22.541 21.9746
1 5.87739 6.0667 22.9735
1 13.0868 21.246 15.9174
1 27.0997 18.1064 21.7572
1 11.9478 20.8353 24.6125
1 2.59476 24.8452 17.9837
1 26.9902 27.8662 9.98842
1 6.87821 8.03831 22.7134
1 19.8541 4.7532 14.8903
1 18.7425 9.11804 11.1999
1 2.85894 1.12945 10.1319
1 11.0289 19.9697 11.5393
1 21.1542 10.3785 11.0251
1 2.09339 19.8591 0.602083
1 10.2634 8.11896 3.88123
1 23.2132 30.1659 14.8485
1 10.2993 23.1587 4.70521
1 16.6835 19.7341 11.508
1 23.0563 8.71802 14.1795
1 18.7502 8.58429 20.4463
1 14.6769 4.13621 1.70791
1 2.8769 27.882 2.78137
1 15.5084 5.56621 26.7569
1 7.46268 11.7023 14.4716
1 1.88897 9.49324 15.4261
1 25.3172 7.53585 24.441
1 15.4486 21.4057 8.66807
1 2.31349 9.35496 10.2002
1 17.4921 13.8342 3.67453
1 25.4705 19.3489 28.0259
1 24.3207 18.0053 18.9149
1 3.62195 1.84935 29.8848
1 5.47865 27.3041 13.5776
1 4.48811 19.9335 9.53867
1 27.3846 27.4823 0.678059
1 14.2392 23.4338 1.30855
1 15.644 9.71096 4.61627
1 6.88796 18.1667 13.0414
1 23.9075 25.5223 10.2229
1 13.0912 9.56163 18.244
1 14.2175 5.04764 27.2158
1 11.008 28.5929 29.6081
1 19.6462 3.80438 5.31065
1 13.2964 7.92816 3.63928
1 6.3098 16.8387 5.25478
1 3.7129 20.0542 25.1116
1 15.4026 26.7786 6.74083
1 26.1223 30.7082 17.0896
1 4.94641 15.688 2.8907
1 9.54577 20.4668 0.648223
1 2.30295 19.3826 27.8047
1 12.5259 30.351 19.3199
1 15.5258 16.1247 14.2903
1 30.5423 6.19793 7.89171
1 12.8386 8.13433 17.9006
1 22.6029 23.5959 27.9261
1 11.1223 24.7489 7.77008
1 4.40557 13.4355 26.9492
1 10.1614 19.3106 14.6263
1 26.7491 17.1142 6.71066
1 10.8121 6.44976 6.04665
1 28.2816 14.8921 25.1201
1 1.47035 13.0453 21.1109
1 28.1476 27.3588 28.6667
1 7.79774 10.91 26.3282
1 27.1294 21.8386 7.10202
1 1.82406 22.5399 10.394
1 19.3479 9.01794 22.9431
1 3.43866 9.3196 12.5065
1 16.0489 8.13566 21.9701
1 22.5519 16.9277 3.9184
1 11.7057 19.9228 5.19712
1 24.3896 2.14647 1.852
1 18.4025 4.80831 30.3256
1 19.9267 29.5954 3.96695
1 20.0264 28.5869 13.9723
1 10.3393 23.4858 8.14448
1 5.76794 8.42019 28.362
1 18.0177 18.4253 9.50553
1 14.9277 25.8658 14.7944
1 10.9485 24.3799 24.5507
1 5.01631 2.87031 1.19675
1 12.0467 14.2525 22.4714
1 11.5655 2.48634 14.8793
1 10.1248 19.6463 21.452
1 8.12975 28.3886 12.1435
1 14.7071 3.07483 16.7835
1 28.4308 21.729 6.70716
1 14.6408 18.0033 20.9299
1 8.29513 3.39174 20.6531
1 5.16031 28.3789 22.1701
1 13.5701 19.9458 1.83472
1 11.0697 17.8531 7.91055
1 26.893 3.73931 18.0563
1 7.24066 11.2102 1.8059
1 12.4407 29.6037 18.0432
1 21.1898 3.75037 23.4158
1 21.3292 25.6597 27.7126
1 5.92042 8.24987 1.49305
1 10.4183 12.9615 15.7425
1 10.3882 26.2794 30.3718
1 6.74771 1.26777 13.783
1 23.7669 6.36775 26.4543
1 10.3457 10.5407 3.05127
1 14.8927 4.50338 0.0970905
1 29.1228 6.16703 16.3597
1 6.30001 11.759 0.971139
1 2.13673 9.05501 4.51727
1 17.5118 26.7822 27.033
1 27.4639 9.15209 24.8907
1 15.6484 9.09583 10.1421
1 16.9117 1.07524 10.6719
1 14.3535 17.62 9.37571
1 13.1528 14.0211 24.0721
1 1.19902 5.01981 14.7017
1 14.723 12.0149 10.6459
1 2.11126 10.5243 27.346
1 11.3012 17.1746 5.12658
1 1.51342 15.4332 9.5605
1 17.1673 7.01477 9.8005
1 6.31278 9.21165 14.1053
1 24.6343 6.15235 5.36283
1 24.4098 9.21492 16.4925
1 7.61923 12.3189 26.8367
1 11.8827 11.3707 11.5414
1 2.78789 11.6711 18.8896
1 1.68738 8.69709 28.123
1 22.7572 9.96963 29.3481
1 3.69332 14.283 9.50527
1 13.3041 18.3226 20.7647
1 28.995 9.05914 14.4695
1 2.41847 1.13654 12.4273
1 11.9034 21.5633 -0.410089
1 5.27385 6.27122 3.62848
1 12.5664 15.7322 17.3072
1 2.81971 2.97047 29.5804
1 29.5786 5.98193 11.7018
1 0.996337 14.7137 15.4815
1 21.597 29.6718 21.28
1 18.0446 18.4827 22.9784
1 25.454 4.07861 0.445563
1 23.6508 20.7331 9.82403
1 24.7572 18.3144 6.85274
1 22.653 28.4983 21.185
1 24.1682 3.17986 19.6985
1 2.98313 10.2239 16.1625
1 9.44662 2.30959 15.8411
1 14.4571 9.67915 9.18714
1 1.63175 11.6309 21.5092
1 5.1368 19.3391 2.77866
1 8.83278 19.3419 17.1124
1 19.7096 20.5003 12.0539
1 12.645 8.26393 20.8315
1 13.5274 29.9981 5.89937
1 28.3107 1.37807 22.1667
1 5.85055 1.35943 20.1605
1 27.1759 10.5269 18.8741
1 19.4155 10.7341 16.8519
1 24.2469 4.91235 19.6623
1 1.02657 15.6125 0.240495
1 17.1512 4.36385 20.2456
1 28.7005 5.12727 20.4259
1 12.5639 12.7214 2.39118
1 9.238 28.8399 9.7722
1 27.4334 17.5015 24.8459
1 8.55675 2.73858 16.8228
1 11.0757 11.8623 2.9442
1 22.3866 26.9035 29.6395
1 6.81269 6.62006 5.72092
1 20.1468 13.9764 16.7416
1 16.4956 25.3145 29.0073
1 5.82292 14.977 29.8198
1 4.45797 6.30359 5.97492
1 1.1368 29.9743 17.9382
1 6.17434 2.01447 25.1152
1 28.4023 16.307 18.2761
1 28.0829 10.854 9.40755
1 7.13182 20.5133 5.9939
1 18.1361 19.432 17.8877
1 26.5997 0.668812 1.57857
1 24.8949 6.32342 25.0419
1 3.54202 18.4109 12.5251
1 4.58603 6.49929 25.7486
1 29.245 25.0406 4.08368
1 11.9241 27.6487 3.22384
1 18.6664 17.1864 4.44033
1 25.4142 5.27328 20.7264
1 5.77703 28.0366 11.3978
1 22.4072 22.2004 28.2054
1 24.304 11.4342 24.341
1 22.8378 20.3148 18.8539
1 7.64173 27.4765 17.6233
1 23.265 7.16059 21.9683
1 5.21737 26.6224 26.392
1 13.653 18.6621 10.2151
1 16.7014 14.9405 3.17453
1 9.94172 14.493 29.9082
1 12.8436 18.7517 7.08378
1 26.4245 11.1538 0.85445
1 23.5598 24.3457 15.2015
1 5.35885 25.5764 1.75619
1 5.26289 5.8511 1.29788
1 21.8289 27.2626 4.51124
1 23.2543 0.219557 23.0087
1 4.11205 10.9998 2.26468
1 1.62863 9.64038 29.1678
1 0.671614 12.2112 6.28406
1 9.99156 22.9877 9.58687
1 3.27047 14.3484 24.4957
1 21.971 27.8778 24.6614
1 22.2709 3.36698 4.79982
1 3.11828 4.78689 18.4498
1 21.4024 3.84308 11.8307
1 27.4911 30.0212 16.7147
1 7.04643 23.0638 6.43016
1 17.4696 4.55693 1.1705
1 23.9072 23.8827 4.17684
1 16.742 13.3061 15.5576
1 29.433 11.6174 3.91646
1 23.4926 9.5453 19.1637
1 6.87125 27.3191 0.690459
1 8.08046 25.3019 16.5295
1 16.0677 16.5358 22.3898
1 21.1432 23.5608 22.2288
1 17.5564 25.4065 28.0012
1 0.506187 0.506747 4.36787
1 7.68438 29.9991 19.4804
1 28.5391 29.7351 17.587
1 7.56383 12.3872 21.7938
1 8.49222 6.02909 18.0924
1 13.1728 6.30642 5.99437
1 23.5446 1.0613 11.8671
1 21.7912 25.4282 7.31101
1 5.19536 29.3285 6.16333
1 2.59331 11.9949 11.8652
1 12.2008 20.2092 9.32529
1 14.0599 23.1585 15.8426
1 16.9552 7.13673 21.4252
1 25.949 19.4403 9.91711
1 5.25497 3.81503 13.6833
1 15.2366 14.6702 27.2668
1 4.18002 7.55317 24.9177
1 9.29545 0.501621 13.1023
1 20.1288 19.4982 9.86607
1 10.8166 14.1937 16.4015
1 27.4479 19.3318 12.8597
1 16.7057 8.72271 13.7333
1 4.15526 5.17365 25.3377
1 10.0848 5.3331 24.9859
1 26.3946 20.7579 0.664422
1 10.5799 0.305002 23.1472
1 25.9386 14.7061 21.75
1 20.7473 22.9864 25.5557
1 10.4953 22.4345 26.7458
1 29.4244 9.57054 4.18689
1 4.71892 26.166 15.5203
1 14.5074 10.0826 12.6153
1 8.92909 13.8265 24.314
1 20.4756 5.5072 3.5988
1 25.0372 23.2048 4.05459
1 27.4937 25.8416 13.2567
1 0.737496 19.1534 12.6439
1 9.29017 15.1919 6.02556
1 23.8774 4.50082 8.86497
1 10.1032 16.3122 17.2189
1 7.04268 15.8925 4.62731
1 3.32124 28.6989 24.3515
1 19.4951 16.3643 12.9065
1 0.431866 22.7754 4.09645
1 12.4382 17.938 8.42562
1 26.2012 1.71313 19.1814
1 29.0875 13.8581 15.3238
1 13.1595 23.2114 12.7538
1 20.4819 19.8871 25.4568
1 2.42511 19.321 21.5237
1 26.7009 6.96982 26.2482
1 19.9789 9.29478 29.5004
1 13.6808 11.9788 19.5627
1 21.1442 16.7867 3.95668
1 25.062 29.9769 21.4992
1 25.0763 7.47963 5.61915
1 7.48437 0.751222 5.90343
1 26.6186 29.0488 22.8446
1 23.138 8.98114 23.8273
1 28.7486 9.5105 24.9653
1 28.856 3.81318 7.23028
1 28.7036 16.779 10.1593
1 9.05084 20.2995 26.5722
1 27.3261 3.5564 13.713
1 4.35793 8.80607 28.6746
1 8.07246 12.2272 28.1604
1 12.4665 18.8111 28.5018
1 1.0155 7.27023 17.0262
1 27.1094 17.3752 18.4462
1 3.66977 1.38241 25.5325
1 0.388344 25.0991 15.2571
1 4.02996 9.40665 3.02814
1 10.3492 13.5009 10.5385
1 3.24097 18.7671 22.54
1 19.6078 21.4266 18.4975
1 24.9824 3.1899 14.4425
1 24.075 4.40978 0.347657
1 1.04429 6.64258 26.1357
1 9.23279 3.89397 12.3621
1 18.0851 22.6939 2.19869
1 21.5721 20.3685 1.18552
1 10.3969 22.5269 17.0597
1 16.748 24.6974 21.8342
1 23.7619 20.4225 22.1661
1 5.38451 14.5988 5.27353
1 3.49575 28.8031 4.8602
1 1.62643 20.6311 27.8481
1 21.251 2.08981 10.1439
1 29.0083 23.9493 13.2948
1 1.68355 22.9988 16.8116
1 13.1967 14.5707 19.0057
1 24.2142 18.7826 28.2602
1 19.5896 25.1876 3.95377
1 16.6985 24.0171 17.9529
1 20.4925 17.3954 19.2467
1 11.7007 25.7689 29.9016
1 14.8624 0.119395 20.6344
1 18.9411 20.1752 16.6722
1 20.8203 2.04964 27.0084
1 6.71113 10.182 5.94279
1 24.6754 8.97771 23.7493
1 5.21176 4.74302 19.4278
1 27.028 6.38798 9.85034
1 9.13827 23.0266 3.51782
1 5.63533 23.5244 27.5024
1 1.93675 0.262554 3.45488
1 27.1871 10.6597 21.6554
1 13.2489 16.9977 3.23938
1 5.61343 16.1423 18.666
1 15.339 11.3942 12.9274
1 16.2794 27.9306 25.4643
1 1.28738 29.6892 23.0342
1 27.3977 5.72746 8.44516
1 1.29611 16.925 27.6758
1 2.38829 27.726 8.84354
1 25.0074 1.60498 23.507
1 5.17647 9.46539 18.7431
1 19.9736 22.4449 5.05455
1 30.1261 21.5117 10.1488
1 22.1709 4.16841 7.10999
1 3.01112 1.16624 21.8069
1 13.3221 27.8293 10.4146
1 10.0744 18.394 23.9151
1 6.27692 19.5142 27.2239
1 14.6012 14.6502 15.861
1 21.7471 22.3596 16.0393
1 15.9668 1.3726 15.4548
1 9.78533 19.6478 3.28801
1 14.3004 5.51895 13.7859
1 10.6719 9.48179 17.0405
1 3.19809 26.2343 28.8583
1 10.6502 10.5005 8.96054
1 28.0197 7.3097 10.2032
1 12.7629 28.2527 14.3227
1 2.80804 28.7144 29.6511
1 10.6535 14.2271 17.9984
1 15.1441 3.27535 29.7645
1 18.2971 27.5339 19.8108
1 0.189821 29.1345 3.19426
1 25.1695 4.9869 2.74996
1 3.74828 20.1231 19.8727
1 8.25261 15.7599 23.4654
1 27.8892 29.3665 28.8266
1 4.86597 22.1796 5.00627
1 6.61964 13.15 7.59914
1 20.903 12.7327 17.3691
1 14.5033 10.6531 23.9457
1 26.9903 2.35662 25.5787
1 25.2051 16.6836 16.0113
1 13.1238 29.6618 12.5058
1 17.9345 25.2032 23.6393
1 7.2169 26.3664 24.9688
1 1.98064 25.9423 7.77238
1 19.8994 4.34605 30.1151
1 29.0887 10.5906 24.4706
1 1.6506 1.57532 26.9203
1 6.20017 21.1638 30.4554
1 20.0683 11.5414 23.038
1 25.3092 27.4344 20.7361
1 16.6018 12.7316 28.816
1 8.11288 12.5781 9.77595
1 1.18132 8.85124 20.8848
1 12.179 24.4837 17.1218
1 13.948 8.42464 24.2189
1 9.52385 29.4178 12.6862
1 22.913 27.7952 1.61284
1 19.9933 17.3398 6.80879
1 10.6817 16.0083 24.5823
1 29.57 11.3876 27.5394
1 19.6311 18.7633 2.52265
1 1.94577 3.87756 3.94603
1 22.2174 28.2324 30.1512
1 22.1759 8.34083 11.7876
1 22.3339 8.98785 28.6253
1 23.6557 16.149 24.9635
1 2.55834 27.7365 21.7938
1 25.08 3.54916 27.9418
1 11.7564 8.85519 26.7601
1 29.3453 2.70926 4.02978
1 4.76217 10.0526 12.2902
1 5.67987 21.846 12.3167
1 12.3418 29.1449 5.58217
1 16.1796 7.27544 4.97839
1 24.7103 16.0493 3.32787
1 11.1594 3.63051 30.3314
1 2.32092 16.2981 0.0709233
1 27.6807 27.6534 12.1704
1 12.4613 30.0081 3.24142
1 29.2319 13.3782 6.27645
1 19.4645 26.9066 20.2493
1 22.4371 25.6833 10.2244
1 11.1419 14.5526 10.2892
1 25.9359 29.6722 30.1074
1 23.9773 4.17659 15.0694
1 22.0334 21.356 19.2414
1 15.0612 25.299 11.3392
1 1.53779 29.6614 10.7994
1 23.2544 30.073 1.64585
1 2.01145 12.0535 6.29611
1 25.0139 24.3077 25.7028
1 9.64637 26.2135 13.9826
1 29.6592 19.646 12.469
1 8.0419 13.2666 0.353665
1 2.17354 6.81318 9.42509
1 4.77546 22.4746 26.8057
1 3.76508 17.7118 27.5878
1 17.754 11.676 3.32847
1 18.955 5.96101 24.2837
1 7.45915 2.67131 28.9005
1 29.3834 30.4485 25.859
1 8.28355 0.753116 10.0997
1 6.94047 25.2808 19.8721
1 6.62969 13.8016 23.2511
1 22.4702 2.13573 14.1067
1 11.4044 0.418968 3.91364
1 6.76359 17.0513 20.4818
1 18.5593 28.6887 2.0146
1 7.86085 4.74073 1.51971
1 16.7254 11.0037 7.46565
1 25.0761 7.84999 20.3899
1 27.8711 26.4363 29.6397
1 20.5982 16.048 6.90168
1 21.2136 6.56515 8.60227
1 9.85582 26.9797 21.0458
1 4.5886 27.8559 23.4062
1 4.81269 19.7497 27.7375
1 11.4299 17.95 24.4303
1 27.5375 28.7797 13.1071
1 10.4169 13.2428 7.99267
1 1.08946 26.0552 25.0761
1 13.8514 25.8018 24.8352
1 10.8583 19.6067 20.3044
1 3.30814 29.9322 29.1549
1 19.0662 10.937 19.8123
1 1.53836 20.4657 16.4601
1 12.5092 5.16019 28.9422
1 19.971 17.5839 1.7069
1 8.90734 15.0267 29.1471
1 18.6357 13.4646 23.607
1 24.95 16.6254 28.0688
1 24.5803 2.9601 0.715155
1 23.7413 23.6295 25.9811
1 24.6545 11.5769 3.80846
1 17.4131 18.9777 13.8504
1 20.8874 7.88584 23.2355
1 19.9616 29.3282 28.4243
1 8.85123 2.21057 28.1048
1 2.46712 4.53924 23.3651
1 4.96682 4.55789 7.42128
1 29.8943 2.68361 15.7031
1 23.8305 4.74654 3.53771
1 1.98471 26.9802 17.3521
1 12.2518 23.1179 6.4441
1 6.57146 16.198 29.4923
1 17.3832 3.41625 21.4528
1 1.04133 29.7756 21.6563
1 11.7744 1.82734 2.00037
1 7.00594 20.5771 27.2056
1 17.3279 5.14049 8.15837
1 17.5284 2.41749 26.7353
1 10.2163 20.9127 3.54914
1 14.0444 23.4654 24.1444
1 24.9003 0.26503 8.46051
1 13.0506 9.60681 6.26926
1 25.1313 10.1293 13.9628
1 20.5265 29.3323 9.75598
1 24.2203 10.6946 16.7039
1 14.607 0.641429 2.86726
1 26.0085 29.0226 19.4168
1 16.5878 22.8061 29.284
1 8.61305 16.3298 5.5282
1 9.78626 30.1523 7.17502
1 8.60496 20.1785 7.41602
1 4.44053 19.9358 14.6832
1 9.96453 2.70004 26.2702
1 11.1348 16.9746 10.3614
1 3.31902 10.4351 26.8658
1 27.5707 5.57734 5.89195
1 9.75744 11.8423 16.5869
1 25.4891 29.5307 17.9899
1 10.842 16.738 15.1269
1 4.31513 20.6615 21.7938
1 9.45154 10.6534 0.273635
1 9.90186 7.98505 16.8905
1 2.43174 26.5968 24.7371
1 28.8068 23.818 4.15017
1 5.00209 22.5023 10.1199
1 19.1833 14.6464 21.2447
1 22.9854 0.899124 24.4004
1 27.22 0.851428 27.3264
1 29.7508 30.4515 3.64383
1 18.4087 25.7533 10.6903
1 12.5952 2.9653 4.18107
1 17.9875 17.9571 26.5379
1 18.8032 11.336 15.5151
1 4.63414 26.2568 23.2442
1 3.94969 8.51659 14.7711
1 15.3598 30.1453 26.0191
1 4.04436 9.77251 15.2991
1 20.4866 27.9038 19.9442
1 29.5117 12.7014 24.9008
1 17.2635 19.5879 2.60363
1 8.7059 26.5178 17.2513
1 10.2763 13.0551 18.8295
1 5.42773 5.01753 17.8291
1 2.30704 5.58575 8.54727
1 24.1364 20.4168 18.5717
1 7.39525 3.53217 14.6746
1 23.6955 26.7694 6.99616
1 30.4912 20.3364 7.51938
1 10.0497 0.156626 25.4096
1 26.5804 27.8622 21.654
1 14.7755 22.9102 12.1279
1 12.9904 28.3098 18.819
1 5.39703 7.4749 7.66183
1 8.06021 0.541864 14.1086
1 14.8391 27.1162 27.2882
1 11.439 27.0404 7.39153
1 9.98321 7.07523 0.699108
1 10.6295 22.5817 29.8818
1 3.96336 28.9303 25.8064
1 14.963 2.09015 9.30481