4096
Atoms. Timestep: 104100
1 8.39385 8.81263 2.76006
1 24.8454 26.2611 4.76648
1 8.72033 5.28618 7.5112
1 15.8296 25.871 29.2809
1 6.03896 4.60037 6.48427
1 2.03456 3.93745 11.881
1 7.07734 11.4326 5.29864
1 22.4815 12.2555 8.0147
1 13.7019 24.2258 9.29676
1 8.24928 13.0474 12.5377
1 12.3552 2.50239 2.18319
1 7.00845 11.5092 24.2156
1 9.44826 12.4683 7.60216
1 27.5744 5.59903 26.8998
1 17.8863 19.831 9.69397
1 17.3874 3.55328 15.4933
1 15.1573 3.76295 4.43519
1 25.6778 4.48606 13.9441
1 14.5359 20.3903 5.71386
1 29.9455 25.6139 16.8031
1 13.3679 13.8544 23.495
1 12.6104 1.40092 23.7018
1 12.8385 23.2548 8.84639
1 4.40774 11.8351 12.3058
1 18.1913 19.4267 13.7947
1 22.1475 10.9807 2.95442
1 28.8046 25.5078 1.5891
1 14.9943 11.7336 6.42137
1 7.98536 7.85277 30.276
1 26.4726 6.01703 22.0109
1 22.1731 18.5709 20.3999
1 15.6188 27.0647 20.487
1 19.558 11.6812 20.3966
1 14.0067 17.2567 25.2073
1 14.1042 3.18447 27.1432
1 22.3552 19.4712 11.0487
1 8.60331 18.6726 23.015
1 23.1239 1.38779 6.66578
1 9.11055 25.2069 26.0736
1 10.8929 27.3945 11.8756
1 4.62322 2.90331 5.32375
1 22.8444 9.86101 7.96828
1 6.90757 14.8022 13.8823
1 18.0461 27.2852 26.2267
1 12.402 12.5755 8.45828
1 0.477965 24.3193 18.7073
1 22.7512 7.31577 15.5765
1 4.04471 9.66834 4.0035
1 5.55256 12.3657 9.921
1 21.5578 8.60606 9.91405
1 4.51452 30.2311 14.9546
1 21.7287 1.34973 0.330185
1 1.33297 7.15386 3.82915
1 5.7974 6.40036 14.8568
1 9.6164 16.3063 15.9449
1 5.70866 14.3007 11.1345
1 6.99048 27.2052 24.0874
1 25.5488 27.3685 4.32091
1 24.7326 11.5366 12.6467
1 24.7902 18.4266 5.54878
1 7.8643 9.57586 1.63839
1 7.01702 1.1933 13.1588
1 22.7371 8.41821 27.7074
1 3.60439 30.2665 7.57724
1 15.6865 3.41099 25.4668
1 16.8115 27.5999 17.0984
1 22.0335 7.8347 19.4529
1 7.18722 18.4704 16.6816
1 23.325 3.0718 24.0792
1 1.87569 23.4393 3.49943
1 20.3591 16.025 1.60415
1 5.63446 1.41979 1.20743
1 16.3984 3.78341 4.81252
1 11.7176 22.2708 19.684
1 3.16717 7.10617 24.6801
1 10.1076 2.68919 1.54413
1 6.0673 16.5255 19.8006
1 6.87841 26.5683 19.1963
1 24.2901 25.4289 12.8291
1 24.0009 22.6423 0.337499
1 15.403 26.8981 1.28516
1 22.227 22.3423 15.5182
1 17.6286 3.31677 10.6532
1 3.22078 14.1721 16.7122
1 1.15639 9.46281 1.52031
1 21.6075 22.2873 13.1984
1 22.4454 3.5945 19.0377
1 16.236 6.68763 6.20967
1 15.9965 17.9424 9.81622
1 3.56623 24.1459 6.4048
1 26.6208 2.76764 30.1917
1 9.73683 4.13867 23.7653
1 18.2243 0.232492 17.3144
1 6.11141 29.1556 4.12423
1 20.4055 24.5662 11.6243
1 7.72924 6.60576 9.694
1 29.0982 28.1939 14.7138
1 15.7291 16.3195 7.21076
1 9.03088 15.2664 14.9536
1 12.4698 8.61518 5.89436
1 1.89277 7.02897 22.0113
1 30.3002 13.3765 27.3394
1 21.9652 12.747 24.0202
1 4.80594 23.4804 19.6301
1 10.225 11.1038 1.40264
1 27.6972 11.2893 9.02897
1 18.8191 16.13 14.7145
1 25.6854 1.8715 29.8451
1 19.0213 26.7628 27.2714
1 5.66369 0.514023 17.2544
1 23.9591 12.466 1.78572
1 19.1401 17.9064 11.7846
1 21.8638 12.7108 22.4649
1 27.7974 27.8041 0.334617
1 13.5341 10.9808 10.9213
1 22.033 7.25788 7.92645
1 26.4446 16.1521 29.0366
1 23.9661 11.3629 15.6857
1 4.72286 20.1327 19.072
1 8.85924 22.752 5.35292
1 6.49399 19.7497 9.28557
1 3.31151 14.2896 4.64192
1 15.2092 26.0314 19.7656
1 21.6268 11.7577 11.8397
1 28.8443 9.91199 11.5652
1 26.9164 18.4321 15.6878
1 8.53871 17.5446 20.3146
1 14.3765 11.6359 22.1764
1 7.90023 15.1086 20.2973
1 7.67043 18.0465 22.2615
1 24.2433 22.1416 11.3656
1 28.8544 26.3411 24.5568
1 8.13433 25.9247 19.5808
1 10.6639 27.539 24.9607
1 28.9731 8.32855 20.655
1 29.2135 21.539 17.9737
1 3.62392 3.99365 29.6529
1 29.3913 15.6661 20.7383
1 7.61303 20.8982 11.1028
1 5.38992 17.0855 22.0818
1 11.7036 0.346941 18.753
1 7.55005 1.93972 16.5883
1 20.8294 23.7951 19.0465
1 8.11488 20.2128 22.7094
1 19.3078 20.107 7.87939
1 13.7416 22.9026 23.5362
1 17.2628 12.5517 6.64492
1 9.07777 7.62073 20.9983
1 21.3181 0.757882 8.91161
1 22.6136 18.3236 14.8978
1 10.4728 8.57392 27.3458
1 28.562 21.7199 5.51171
1 5.38212 15.4948 17.1552
1 22.6647 20.3496 0.697854
1 15.3152 10.3057 8.3383
1 22.0742 4.03052 12.3587
1 4.8449 14.9314 18.377
1 19.0972 26.9952 24.885
1 17.1726 21.4969 15.1356
1 7.07791 23.7231 23.8745
1 29.5299 24.6846 9.39112
1 8.94194 14.4751 9.71808
1 27.6945 14.9775 11.3697
1 17.7747 16.4595 12.6834
1 19.2154 12.5881 12.788
1 26.8721 27.5394 16.7693
1 18.9569 29.824 13.7073
1 5.98958 27.506 7.13255
1 18.5624 20.9044 9.85199
1 14.5724 9.6437 1.0687
1 22.0623 11.5194 28.7707
1 5.12024 4.37428 29.3354
1 7.474 10.3376 5.97693
1 5.91878 29.8561 9.06167
1 8.4563 19.8006 24.9755
1 13.8468 14.5979 21.0289
1 12.8777 16.2867 25.9143
1 10.1086 29.7639 2.46559
1 1.62249 30.2886 22.2897
1 8.99458 2.6807 25.7984
1 7.05554 26.3992 0.717776
1 3.72658 5.91806 17.2386
1 17.4428 19.522 11.1926
1 5.42263 7.97154 13.3091
1 5.95606 10.4239 12.4389
1 18.0868 16.9167 19.7339
1 3.5226 29.0549 27.4368
1 3.15555 25.0689 25.7404
1 15.1313 20.7716 1.45871
1 8.77292 17.752 11.2674
1 2.04659 2.42131 17.2204
1 20.1581 2.8065 9.44873
1 29.9384 14.8024 24.9413
1 8.06036 17.0807 4.98039
1 3.90519 22.6658 9.84359
1 4.55297 7.9799 18.2521
1 3.28064 16.0639 23.0364
1 18.1043 22.4658 14.2754
1 8.64666 15.274 11.1036
1 5.97676 6.91144 2.09671
1 30.0968 4.8643 24.4217
1 5.66319 22.2535 20.7009
1 20.2736 14.6427 22.7784
1 2.7981 23.8464 22.8882
1 1.61867 6.79133 6.10677
1 28.0675 26.3705 12.1
1 9.0648 8.80554 17.4635
1 21.8483 1.22312 4.52853
1 30.0502 24.7901 4.62409
1 3.80772 26.8872 24.3832
1 5.46253 21.4164 14.6394
1 9.27216 16.2702 3.93656
1 7.48394 19.3978 1.09372
1 11.2575 17.5485 2.13295
1 18.7244 10.3622 3.25129
1 14.2333 28.8237 28.6453
1 24.3478 15.7531 9.45371
1 14.5294 28.5659 8.25007
1 21.2744 13.6839 26.2834
1 18.4479 2.73434 13.4604
1 22.8824 1.04502 28.1732
1 0.623444 11.4296 11.5206
1 5.50998 1.77697 9.57074
1 11.2387 8.96354 14.7321
1 17.6052 12.228 26.1242
1 13.5771 18.1214 16.8052
1 23.1496 14.876 7.50864
1 27.7438 20.5489 9.91653
1 28.8418 19.5446 6.72075
1 21.6454 22.3369 6.85999
1 24.1204 21.1795 18.2544
1 28.0573 21.1616 29.002
1 11.939 24.1474 29.1994
1 28.9504 10.3673 27.3577
1 5.50631 28.5073 28.1731
1 26.1016 23.2339 20.0118
1 14.5573 18.3466 0.75535
1 24.4612 14.7664 28.0612
1 7.26596 28.2901 4.36161
1 26.6673 3.28731 26.3701
1 15.8239 24.4562 26.9921
1 13.5287 23.4357 3.86063
1 4.13471 29.5667 0.997565
1 26.2298 4.69938 20.9562
1 3.14496 27.752 7.75475
1 1.81456 1.13204 11.1383
1 7.45728 24.051 27.371
1 27.093 24.9403 21.7902
1 15.6137 26.5504 7.01297
1 8.15785 8.82012 26.5644
1 9.85508 18.5834 23.0119
1 22.5868 10.0628 23.8659
1 11.2822 9.36229 8.57304
1 17.0809 15.4991 13.5209
1 9.75775 11.5489 3.86895
1 12.9216 4.54175 29.1851
1 16.9027 12.4257 2.81755
1 3.62624 11.8971 28.9369
1 29.7622 20.3514 11.3025
1 27.1089 4.07778 11.9181
1 16.092 22.4675 9.54733
1 23.4007 10.6337 26.4392
1 2.96339 2.79326 9.40122
1 16.061 8.23308 24.4235
1 3.0326 15.8113 20.0976
1 30.2093 16.1077 25.4935
1 21.9525 8.30934 12.8305
1 14.7339 14.0348 18.5291
1 13.1454 24.5868 28.8314
1 25.0216 14.5028 11.8367
1 4.14652 16.9906 4.7116
1 17.9774 19.9869 22.696
1 29.5762 26.8536 6.26928
1 23.9874 15.4834 0.796926
1 1.68995 9.85882 14.3965
1 12.9593 25.3901 7.45136
1 16.6676 12.0738 24.9
1 5.02224 24.2609 0.799397
1 11.3777 9.54228 20.1625
1 21.1273 14.1526 11.6751
1 11.4819 19.597 12.8259
1 0.654982 24.5299 17.2353
1 28.3003 19.3759 2.71498
1 11.82 19.3443 4.07699
1 23.2385 19.0727 3.31211
1 29.8097 28.8616 23.5722
1 26.6813 29.45 27.659
1 10.7826 17.1166 5.67325
1 14.5742 9.03721 27.7329
1 26.6648 5.949 3.28663
1 10.8359 23.9386 2.6212
1 23.7794 3.72024 1.39294
1 23.1334 23.392 4.8951
1 8.6318 16.9992 25.5139
1 4.56309 14.6721 4.29903
1 23.3552 14.2534 19.142
1 2.30801 27.6681 3.868
1 2.09217 9.36973 17.2294
1 5.06482 14.8333 25.1692
1 26.1012 25.9804 22.4887
1 17.4586 30.1261 4.25497
1 16.1135 23.0692 12.6915
1 5.63232 28.2159 21.0341
1 16.2563 15.2923 9.68954
1 0.578573 13.9108 17.1947
1 7.91211 27.9865 3.20825
1 2.94721 6.13005 29.1123
1 9.64898 14.9287 3.79721
1 9.95816 7.23873 7.89525
1 8.25101 17.7263 9.90989
1 27.9548 27.9992 1.95135
1 23.2473 27.8592 21.9193
1 16.4658 8.69521 14.5471
1 8.9904 19.4183 29.046
1 4.96485 26.6437 11.6791
1 2.01943 13.401 0.723473
1 23.3938 0.404816 15.8994
1 17.1043 12.1853 18.1383
1 16.2566 0.573382 5.17113
1 19.7413 5.31978 7.96807
1 29.8603 14.5286 27.9861
1 26.2287 16.8739 13.6034
1 10.4885 6.89621 25.3641
1 26.3064 3.71562 2.40093
1 6.36564 8.15992 2.61017
1 11.003 19.2875 27.5066
1 18.5749 16.7367 26.9963
1 17.0318 22.8039 26.0512
1 6.51953 9.20245 1.66462
1 18.7598 10.5245 0.749974
1 18.3491 22.1573 12.9286
1 16.1374 24.58 12.1768
1 29.8819 0.304791 11.9348
1 14.7169 11.9268 11.6896
1 3.8652 13.1183 12.2614
1 7.19495 26.1042 14.8653
1 15.8494 9.49298 28.0054
1 18.2125 5.85412 25.1052
1 11.3411 14.1143 2.96106
1 15.5748 19.3344 21.0294
1 0.329661 17.2332 24.5693
1 7.3106 10.4688 25.1487
1 13.0061 6.54156 21.7959
1 9.86231 4.97133 30.199
1 16.9074 9.19269 20.5239
1 22.6 14.2591 9.73822
1 24.0386 28.9257 22.2559
1 16.8047 24.8344 8.70205
1 28.6998 5.68419 6.77765
1 30.024 4.16369 29.4423
1 8.04286 16.415 29.8627
1 12.7344 2.31755 0.737743
1 26.2231 9.24751 1.98956
1 26.448 7.71086 14.6237
1 14.5477 29.4503 23.7484
1 9.95647 3.72164 4.1216
1 8.82313 15.658 8.0698
1 16.389 11.8477 17.1017
1 26.5733 26.6479 3.3669
1 20.0537 7.37727 22.0367
1 20.9478 2.5854 27.5763
1 6.14015 14.6078 28.7535
1 25.0792 6.91163 14.3533
1 28.8531 8.03105 28.7539
1 3.47953 21.3175 4.21362
1 20.6969 16.2102 25.6482
1 28.324 7.71308 27.2903
1 19.728 16.7171 27.5937
1 20.8511 5.36059 29.792
1 13.8059 0.988394 8.56075
1 27.1177 13.2432 4.72419
1 17.811 7.57423 2.36069
1 26.6364 23.458 28.4405
1 23.625 17.2397 14.9254
1 4.80385 2.97458 2.85411
1 1.30535 29.2705 9.55224
1 14.3566 23.6181 14.2202
1 13.9808 22.0426 8.97069
1 5.63557 16.9704 4.68633
1 11.6788 16.9278 14.7006
1 16.0293 15.3921 5.93619
1 3.76363 15.2412 8.61218
1 17.1902 26.8262 29.0705
1 24.5864 18.7607 28.0899
1 9.57076 2.70323 23.4777
1 16.1746 2.04887 5.78368
1 0.438081 22.4847 23.503
1 10.8061 8.39559 4.2843
1 29.9683 16.3265 19.5744
1 11.7482 12.6174 28.6638
1 8.2814 21.9274 24.7314
1 28.5677 3.9467 11.5255
1 27.7615 29.5902 12.2573
1 25.1339 30.0472 12.1054
1 20.288 22.186 6.71749
1 13.268 15.3873 12.8049
1 11.0232 7.53362 24.1162
1 12.6095 7.1557 0.627731
1 16.1029 18.4882 8.63347
1 4.95286 19.8843 16.5454
1 27.775 10.9927 27.1207
1 12.023 19.6072 18.7402
1 1.40997 1.96537 27.1542
1 0.633855 4.82403 2.97822
1 18.3068 4.12181 19.1858
1 29.1745 20.6402 23.6777
1 24.4224 2.54847 29.2179
1 27.626 9.69937 2.19783
1 15.3085 13.1472 19.4305
1 3.09094 20.5534 29.77
1 23.4491 11.4683 13.4845
1 25.4954 22.3819 3.81435
1 28.5018 24.8027 8.31016
1 9.75125 6.84052 2.54056
1 28.2802 18.4827 15.7725
1 24.8315 7.81579 7.62059
1 2.69311 21.5325 19.9741
1 28.0025 11.8081 10.2782
1 10.8013 14.2325 4.40492
1 12.9724 26.1346 14.4903
1 28.2369 16.0179 6.92647
1 19.9198 2.79268 15.4988
1 12.6139 21.1574 28.0345
1 27.9046 10.9133 11.2646
1 21.1567 10.6594 1.78508
1 26.2663 22.5091 10.1727
1 24.9722 17.5498 1.8704
1 6.02626 2.3759 21.2952
1 12.0788 4.19586 10.7002
1 24.9851 22.8766 10.5396
1 18.2402 27.6208 2.21143
1 26.9433 22.1983 28.1259
1 9.38379 4.20694 16.8342
1 17.8999 9.01307 14.2343
1 11.2757 4.17127 26.6711
1 24.0995 17.7144 21.1865
1 9.15615 19.5278 13.6628
1 9.81896 19.6754 7.01964
1 29.5343 4.07837 1.91482
1 24.1984 6.54083 1.47496
1 0.438482 26.2786 0.456719
1 3.52028 6.96507 0.274609
1 26.1025 6.25543 8.10783
1 23.6262 19.1739 0.803466
1 9.0527 10.3481 7.3652
1 16.8873 26.9764 23.1222
1 7.24683 27.5324 1.99231
1 5.6912 25.4417 25.3181
1 7.05711 8.67345 10.8776
1 0.966931 11.1952 9.16099
1 22.5597 15.8276 26.8141
1 4.82677 15.6076 27.0721
1 10.5839 16.478 27.1881
1 8.81194 7.95245 7.02637
1 11.883 16.6674 29.45
1 21.0299 24.9002 23.9545
1 16.1758 25.7901 23.7354
1 2.07498 4.8474 26.2353
1 24.0238 13.1329 8.5945
1 11.3274 22.7586 5.51068
1 23.9834 30.1255 25.5542
1 27.7455 9.96142 8.85187
1 1.03183 22.9435 12.1546
1 2.10335 20.6713 11.0716
1 23.3082 7.1389 11.3884
1 3.43984 9.09193 28.2807
1 13.846 24.6376 3.27939
1 4.27952 29.8726 26.0036
1 23.1307 17.7538 9.22913
1 9.04264 11.2466 18.5483
1 28.7414 28.5399 21.3533
1 19.67 8.17875 7.74986
1 16.7656 10.4059 11.2991
1 27.0872 6.55452 5.51635
1 19.1492 17.6914 9.30447
1 26.2737 0.353223 7.41577
1 22.5452 28.5649 14.3115
1 12.4779 24.7544 1.01841
1 17.8182 6.4063 8.10241
1 1.61781 11.9398 18.756
1 13.6168 17.7859 13.1578
1 16.132 1.60042 27.4794
1 2.31199 0.924766 26.7319
1 8.0699 9.87838 8.51042
1 2.58771 1.6639 14.349
1 13.1218 7.19393 12.2002
1 22.5289 25.3843 2.95893
1 20.7166 28.0108 3.01972
1 3.41217 11.0167 1.07963
1 11.1001 7.61114 12.7584
1 2.11525 18.3556 23.3531
1 8.79466 21.8557 6.4294
1 13.7692 14.6574 15.0102
1 11.2929 12.8538 29.8785
1 3.67019 6.46703 27.8073
1 13.4033 1.98399 24.9176
1 22.5986 5.42539 30.0796
1 23.4607 1.34155 21.2425
1 6.89821 8.69867 27.289
1 28.4458 9.4659 5.51999
1 20.6317 19.7487 18.3194
1 29.6473 29.9823 6.02164
1 14.778 19.2546 11.4113
1 2.44341 23.2573 6.56294
1 20.7505 2.09799 20.9343
1 10.5614 16.8008 4.25004
1 2.2642 8.30541 21.9309
1 2.67136 21.0117 21.5775
1 6.10253 19.7922 1.33795
1 28.3544 6.18508 9.69571
1 20.2242 9.04409 14.5708
1 7.37431 15.7136 2.1432
1 13.3438 29.1616 26.0584
1 16.514 2.42812 23.293
1 20.601 13.9935 27.4476
1 11.8339 2.92792 27.9127
1 8.42763 5.63491 27.5805
1 17.6007 2.21611 15.7261
1 4.28047 1.014 9.96789
1 13.6583 6.20466 10.0955
1 3.45169 26.8403 21.9237
1 19.0917 21.4183 25.8142
1 26.5139 2.53521 11.6406
1 19.2921 14.8094 1.66481
1 11.5417 28.454 11.3144
1 20.6891 3.87359 22.3953
1 28.753 3.68577 15.5097
1 5.96419 24.1998 7.3661
1 21.8491 9.51874 12.3509
1 26.0724 20.0747 2.12819
1 28.2622 7.01534 20.5477
1 19.3605 30.2915 21.2867
1 29.1959 2.66693 21.1094
1 19.4806 16.9809 6.3448
1 1.43295 10.6776 10.3805
1 10.6871 21.5318 8.47107
1 10.5843 17.55 22.4665
1 28.6573 11.2755 4.58387
1 10.7558 17.1329 21.1709
1 1.34936 9.90074 8.44465
1 26.8326 8.24399 0.913767
1 24.9618 8.89064 23.342
1 8.7167 20.808 23.8045
1 23.8973 2.60754 13.8694
1 28.9233 26.7701 2.41748
1 23.0312 12.0875 14.799
1 11.3836 5.43083 7.1438
1 7.23028 4.60647 16.4004
1 29.6153 9.90167 19.2807
1 23.9932 26.0938 2.38913
1 23.0977 28.6151 8.99761
1 28.2524 7.63169 8.87546
1 7.41412 0.914801 23.745
1 27.0878 24.1759 23.0431
1 23.7237 6.77323 24.6117
1 19.5255 4.25167 20.2411
1 15.0479 25.3575 26.2252
1 27.1509 15.4209 17.5299
1 10.0382 27.3192 4.61865
1 15.5794 23.2693 1.05712
1 27.1023 20.438 18.3061
1 1.47152 8.12751 27.3815
1 23.3157 13.3103 5.62614
1 14.5266 17.2537 20.5306
1 3.10282 22.0318 10.9549
1 30.1815 19.7073 24.1206
1 26.3247 27.1362 7.60149
1 14.0434 14.208 7.56451
1 12.7497 7.18858 6.17905
1 3.50742 29.293 15.9252
1 8.61096 13.9471 3.84158
1 22.4487 24.0699 3.08071
1 27.814 19.299 0.246367
1 10.6314 20.0777 26.2299
1 14.9869 2.6855 21.879
1 12.1922 21.8923 26.9826
1 22.5669 29.5913 19.3127
1 11.082 16.6215 16.2405
1 19.5139 5.92205 24.5808
1 13.9938 22.2808 29.8382
1 27.6159 28.8409 20.3483
1 20.2777 4.48222 2.24433
1 19.9953 16.2108 14.6115
1 1.17843 19.289 23.1097
1 13.0298 23.1612 26.4125
1 0.58342 9.63427 16.8923
1 8.93494 18.3942 17.0209
1 30.2231 6.31728 3.95944
1 22.5029 13.1596 26.76
1 19.707 8.74339 18.5816
1 28.3783 22.3568 1.41678
1 18.5397 0.371168 19.5705
1 6.02317 11.4402 8.76425
1 28.4726 10.4679 18.362
1 14.418 4.59996 18.1923
1 25.2013 14.5374 23.6333
1 19.6771 2.2579 29.6608
1 4.58553 14.6378 16.2479
1 9.88923 6.63329 16.1673
1 4.63916 4.43444 20.516
1 25.6575 14.7838 15.2026
1 10.4517 0.217196 3.79425
1 9.72682 14.8306 25.0981
1 16.388 16.3494 17.6015
1 12.3309 0.556511 27.2569
1 1.05901 7.26529 7.36023
1 1.16225 5.81038 28.2167
1 29.3936 3.99705 21.9185
1 7.95498 11.6797 23.1583
1 12.0815 25.524 24.4092
1 1.43166 23.2625 0.917428
1 23.4132 5.01765 22.5463
1 5.07259 8.05148 7.39836
1 8.62872 20.2909 21.1561
1 28.4817 30.0926 26.3298
1 26.0209 28.211 11.2935
1 20.9353 6.94181 3.07131
1 14.2811 23.5974 29.2675
1 27.1342 11.4388 28.4599
1 14.5537 5.50578 2.54982
1 5.83071 19.5984 27.9198
1 7.98716 28.4079 27.0361
1 25.2858 28.1588 25.1483
1 3.1722 13.7156 24.0381
1 16.5155 10.4866 21.8559
1 22.9683 6.65668 6.90262
1 24.1914 25.0814 1.22946
1 19.5402 23.7716 12.5946
1 4.9816 9.48477 21.6737
1 22.2591 1.02695 12.4601
1 11.9722 12.9656 6.21911
1 6.82673 13.8688 5.00353
1 16.0852 26.1148 25.2312
1 18.332 4.19137 3.50717
1 9.91248 0.776686 26.5737
1 16.3071 25.0555 4.2907
1 26.443 27.762 27.7968
1 26.354 1.67649 7.90175
1 1.73043 7.1416 8.56404
1 9.23824 26.9539 9.78458
1 14.1282 22.4707 22.4967
1 14.4953 17.032 23.8414
1 6.60222 29.835 26.128
1 1.37225 14.4618 2.9344
1 10.3826 14.7973 13.1327
1 1.35577 1.0917 18.8018
1 16.7001 18.5886 20.9937
1 20.351 23.6133 15.25
1 10.839 27.1743 1.47832
1 25.1242 6.75637 12.8586
1 28.5954 23.869 18.5372
1 17.9872 29.0717 13.2983
1 19.2057 23.8043 9.8299
1 8.88687 0.713147 13.7832
1 14.7749 17.6973 27.512
1 27.4376 17.2658 22.0248
1 15.7256 24.6123 17.8435
1 14.2608 21.4988 10.5528
1 5.67162 8.80536 9.01983
1 15.1862 3.17255 1.82049
1 11.8383 1.76416 22.5404
1 3.82268 9.95946 9.28667
1 28.0516 9.94841 17.1819
1 22.9392 20.623 9.19059
1 7.34183 9.62593 22.7182
1 29.8114 19.5593 20.62
1 8.32521 26.0259 29.9745
1 7.73819 14.296 16.6432
1 12.0888 3.06829 21.8156
1 23.5198 2.36263 0.911541
1 4.7938 18.2935 13.9798
1 2.06252 12.452 8.85291
1 8.41007 20.5433 27.1961
1 5.7119 30.1331 22.4539
1 3.87549 8.55462 19.359
1 4.05768 17.2479 22.0385
1 20.8361 9.55042 25.8901
1 11.7292 25.7008 12.7982
1 28.7053 27.2907 7.57536
1 10.4355 3.14014 16.3381
1 23.1026 29.9704 21.9069
1 19.3112 11.9474 15.4616
1 30.0927 10.3348 12.2194
1 13.6146 27.2963 24.6694
1 20.2882 7.73244 5.33448
1 23.3786 4.01847 21.4348
1 1.10821 21.2544 15.9926
1 28.876 12.8464 18.434
1 0.302227 15.9222 8.26744
1 11.4541 5.76449 28.6101
1 23.1876 9.96963 3.07739
1 16.874 13.1257 12.3823
1 19.1268 8.65594 15.2199
1 1.23041 16.0368 26.4699
1 16.1729 23.208 17.2164
1 4.02016 4.27575 24.5262
1 25.4574 24.2622 27.9731
1 10.0497 11.3145 7.78445
1 24.5499 14.5034 14.5202
1 7.5873 4.30747 7.9763
1 11.2398 4.88288 13.9002
1 19.2717 28.0781 5.79332
1 16.9565 3.65664 8.16338
1 16.3829 13.9613 27.0074
1 3.81044 11.8767 18.3549
1 23.4949 28.4104 18.5497
1 12.2517 29.7439 1.61747
1 11.0074 6.07053 5.84198
1 2.85204 19.8268 14.9505
1 20.6337 1.68121 15.7671
1 16.8988 25.9751 16.1172
1 10.3501 2.86819 10.9352
1 0.691127 8.52588 3.92517
1 0.897529 5.74566 5.51729
1 27.3184 9.54054 7.52261
1 13.9831 17.1652 15.6781
1 23.8071 25.6712 22.9176
1 8.48383 10.9839 28.2615
1 6.15859 18.8185 17.4086
1 3.31071 19.5494 21.4814
1 26.6782 19.4442 19.3479
1 13.7746 18.5854 25.5835
1 5.1622 8.53643 15.6057
1 14.8126 1.77995 20.7764
1 24.8866 17.4396 27.5728
1 1.0746 23.3925 5.93906
1 7.97961 12.3894 8.01107
1 16.8323 14.3294 1.15637
1 4.37532 2.6083 15.4848
1 22.7473 28.6803 11.4963
1 28.4191 28.4921 22.72
1 6.18308 4.32609 10.0127
1 21.0655 13.7682 20.2814
1 22.1631 10.662 10.6924
1 19.3307 26.8253 1.69275
1 8.99888 20.5883 10.6984
1 4.37641 1.18148 17.3193
1 22.6683 5.90878 11.1217
1 27.4362 3.79518 21.193
1 24.0543 28.7834 13.8639
1 30.0501 20.2845 28.4199
1 3.02059 9.19884 14.1206
1 1.44941 1.87746 7.08103
1 26.4854 29.4459 11.6746
1 8.64182 6.20798 21.2025
1 22.9458 16.167 6.8929
1 21.0901 5.03715 26.5355
1 0.220479 4.21725 22.9003
1 12.8632 7.47908 14.533
1 10.864 2.339 29.0963
1 12.5818 5.27381 7.84608
1 10.4604 21.5609 1.0079
1 19.7302 8.6684 1.57297
1 7.09903 9.88098 11.6255
1 27.5415 5.37238 23.0214
1 12.0042 9.88466 12.3973
1 7.29756 2.91995 23.6105
1 21.537 26.3885 28.6232
1 5.24031 14.789 3.03941
1 1.8755 14.7702 21.382
1 11.0521 5.1749 10.2394
1 12.7354 0.64568 20.6154
1 23.2225 8.06506 12.3039
1 12.1512 3.80474 25.6905
1 21.9 27.6853 4.05429
1 14.0639 19.0908 8.98975
1 21.0389 4.01215 9.69881
1 23.5621 23.2105 25.8204
1 7.58383 20.9752 20.6694
1 16.0047 14.0712 8.83552
1 22.0133 23.8573 23.8203
1 25.6738 12.3845 13.4597
1 18.0867 6.64699 1.25826
1 14.0685 17.1982 29.8783
1 23.8794 25.5107 24.3833
1 29.3097 20.9876 10.0677
1 9.94131 29.613 13.8487
1 30.0659 15.1383 12.8497
1 20.25 15.6703 9.84634
1 27.7065 12.2612 1.04773
1 10.1435 15.8456 6.50909
1 25.2723 19.6225 6.26823
1 9.21599 16.7674 17.1574
1 5.03589 12.8946 26.9721
1 17.7421 6.96819 15.4655
1 29.5576 7.62797 25.424
1 2.24286 29.8286 27.6377
1 15.3555 1.50639 12.9443
1 8.94109 13.9139 18.9534
1 12.6006 28.3865 9.06879
1 8.15589 6.79576 24.4377
1 2.3988 15.384 17.0163
1 16.8431 17.49 19.7006
1 3.85778 25.6234 15.7528
1 27.9231 4.44561 6.34057
1 4.34594 20.7109 8.55724
1 12.0001 18.7469 0.279585
1 15.8072 0.510271 1.99938
1 24.4547 5.65127 24.5086
1 14.9611 14.1804 29.3861
1 15.6445 25.7 0.46331
1 10.544 11.9103 17.0409
1 10.6763 23.1603 1.23361
1 4.95629 9.41419 12.8797
1 26.7831 25.5664 19.096
1 15.796 1.89822 2.85578
1 4.10912 14.4853 13.7874
1 13.8298 6.47689 26.9826
1 21.1114 15.097 26.5056
1 5.21109 6.87923 18.7578
1 1.23745 17.9144 8.12243
1 2.63954 25.1337 20.396
1 25.6484 5.3808 17.4134
1 13.0453 24.9135 17.4652
1 20.169 10.4941 29.0893
1 17.8981 6.71013 6.07795
1 28.5558 29.4359 29.1924
1 6.16041 16.914 3.5118
1 11.9669 27.1392 16.2163
1 28.233 24.2243 24.0253
1 13.6828 25.195 25.8578
1 5.10882 7.72563 26.4118
1 28.5478 13.4767 2.87331
1 29.1349 6.93661 29.6505
1 14.3015 6.4302 11.3352
1 13.4837 10.2046 9.50601
1 11.5855 16.12 8.0686
1 6.57072 29.3975 23.4338
1 21.2704 27.2878 9.73424
1 19.6143 12.8941 10.2762
1 13.9031 9.45404 26.4521
1 22.144 1.14453 24.0254
1 18.9818 17.6309 20.2803
1 29.852 14.3634 6.4019
1 14.229 0.658341 11.1786
1 28.639 5.02119 1.8069
1 28.4454 18.4246 28.2301
1 6.58218 12.3689 2.70522
1 12.3795 1.41143 6.52835
1 5.66912 14.0334 7.84362
1 30.1065 21.9883 14.2537
1 24.4669 9.88088 5.09479
1 1.67971 5.61206 13.985
1 15.6428 6.25253 2.14801
1 2.61257 4.14004 4.69197
1 13.6956 14.9761 4.12215
1 23.8983 2.83502 15.5786
1 5.8137 0.611379 5.93034
1 18.0345 19.3012 21.4422
1 6.17538 16.1726 23.1246
1 24.8322 6.57433 26.5217
1 6.40615 29.9306 10.3604
1 13.8536 4.72321 14.48
1 24.8234 15.0591 21.0541
1 7.35685 22.3844 8.64695
1 7.25374 8.00102 5.13705
1 3.82527 3.22898 10.3972
1 13.9225 29.2461 18.0928
1 28.9329 5.35176 12.0699
1 20.5784 12.121 22.5784
1 1.06864 28.5503 29.2635
1 4.20274 2.83317 4.06049
1 30.0235 0.188938 26.8381
1 23.9163 24.6758 15.7838
1 29.0194 14.6763 24.1179
1 4.21471 22.7186 27.0261
1 25.0413 0.658199 10.9153
1 5.51199 27.3995 2.62656
1 18.3815 5.27489 27.3725
1 23.5283 8.02433 21.841
1 12.0978 24.2896 18.4235
1 6.87692 3.93301 24.7472
1 29.1044 12.0226 24.0152
1 6.58152 26.7201 11.3466
1 8.20946 25.8071 25.1374
1 9.69336 1.13211 4.32883
1 19.7208 20.5678 3.13272
1 15.5683 13.0637 14.6775
1 24.4823 17.1368 11.7584
1 10.4659 0.791224 19.445
1 2.4189 20.4277 3.84296
1 18.661 1.83958 26.2191
1 6.43104 23.3913 25.0391
1 7.16597 21.3651 15.327
1 9.96323 20.293 8.4771
1 6.29692 6.53267 20.7468
1 2.15167 18.7334 13.8719
1 28.6591 29.081 2.49239
1 3.11599 12.2702 9.64842
1 26.1512 19.9654 3.63324
1 5.85096 17.9119 12.5665
1 7.30187 4.19854 19.907
1 26.8401 11.0763 12.0693
1 27.3146 0.947526 1.71638
1 19.3692 24.343 6.72737
1 2.17102 15.9906 7.0402
1 29.6985 8.50084 19.378
1 20.5221 28.2897 19.9676
1 10.2184 3.6734 12.2261
1 11.4478 4.47441 12.6863
1 27.9826 5.43831 13.4024
1 27.3604 15.5565 20.0141
1 29.5412 15.5407 6.97347
1 17.672 18.2832 16.143
1 13.5871 10.9119 6.28416
1 15.5131 30.2279 24.275
1 10.9396 29.8343 22.5811
1 19.1413 2.19534 23.2266
1 18.0323 15.0199 14.5045
1 8.4405 1.79174 23.0201
1 9.20064 9.44674 9.30304
1 23.5344 14.6286 17.8571
1 15.3727 9.31416 20.2161
1 6.98963 15.6285 16.8234
1 16.2504 1.27803 11.8581
1 8.3985 10.5324 22.2649
1 7.31643 8.79259 19.6438
1 29.0668 8.10036 5.9031
1 23.9677 18.6348 1.98921
1 6.13428 9.47015 25.0732
1 18.6456 29.1162 21.9881
1 24.5171 11.7585 6.65191
1 27.5307 0.315136 25.2927
1 15.9667 5.3146 6.59318
1 6.68474 17.3714 5.4563
1 3.60566 12.5134 26.5602
1 30.3088 23.4184 7.01637
1 5.79756 18.7954 10.3421
1 12.769 22.859 18.478
1 11.0192 9.81442 25.1788
1 3.96923 1.15086 8.20453
1 27.1674 22.4535 17.4153
1 11.5327 27.1058 13.0575
1 23.4809 16.8586 4.04901
1 4.40983 29.3243 21.913
1 5.5827 27.6743 26.8959
1 10.6332 21.6026 14.1587
1 17.5835 15.8529 28.1861
1 2.7539 3.34918 17.8112
1 24.425 13.7501 2.13441
1 6.12322 24.4522 19.0896
1 6.31634 21.3561 1.46926
1 26.8496 8.48705 4.40044
1 14.8445 15.1528 1.7412
1 24.2291 24.2702 20.9933
1 27.1689 21.8207 26.7685
1 17.1124 5.20731 8.18135
1 10.5906 23.2651 19.7275
1 1.16364 21.5076 23.4716
1 15.8871 24.9474 10.7897
1 17.7594 0.876705 2.98793
1 17.8859 19.0801 23.9454
1 21.7941 27.7016 11.9586
1 3.02765 27.8421 2.49042
1 11.1492 27.0512 23.8608
1 26.051 19.7163 26.4629
1 2.34571 4.00844 2.00813
1 19.5419 23.0674 19.3399
1 11.6078 26.3647 26.9337
1 22.3298 16.0289 23.441
1 13.8627 24.5867 1.64128
1 6.44195 19.0263 28.9177
1 21.8184 28.7787 2.04115
1 13.3641 9.87529 20.8048
1 6.15114 25.8429 24.0995
1 5.2126 5.17668 15.0862
1 18.6945 30.3316 4.75272
1 14.0185 3.262 6.70696
1 2.39293 23.4642 14.1749
1 26.2189 27.2251 13.5245
1 0.822881 23.0888 19.194
1 3.23263 28.0605 12.6377
1 23.0252 5.65399 8.03352
1 8.03537 17.1747 12.5881
1 0.604784 11.7436 3.41915
1 25.4291 27.6613 20.1299
1 17.3742 15.9088 5.54515
1 25.5241 20.8639 4.47962
1 19.3928 15.9696 25.053
1 2.13459 13.6865 2.02198
1 23.827 5.565 27.3629
1 14.4232 0.432762 30.1586
1 9.54829 28.3569 13.7774
1 11.2984 28.5725 27.0238
1 9.39214 6.73892 27.7253
1 1.43926 27.0778 28.2998
1 22.615 13.6785 29.7571
1 17.1339 23.7277 21.9085
1 13.8181 7.12213 13.7657
1 18.727 20.9309 5.56905
1 14.5943 7.41389 21.1585
1 17.1726 13.582 4.83124
1 9.68642 29.5736 22.8814
1 26.1272 15.7243 23.4364
1 3.37312 16.3043 30.2764
1 16.0757 16.2933 15.5207
1 27.7445 2.12057 1.12783
1 15.4627 2.8997 23.9253
1 4.06362 25.2629 2.80812
1 7.30462 3.03763 0.710986
1 1.20218 29.3279 16.1748
1 28.308 6.42477 14.2623
1 27.3854 19.3048 4.03893
1 23.5846 23.9578 0.436182
1 21.2052 29.3972 0.949304
1 24.7035 23.7719 14.9594
1 23.4204 21.3031 8.10364
1 4.47348 20.153 27.4985
1 2.59189 8.99476 15.3599
1 22.6457 24.5373 29.5683
1 15.1232 21.1567 24.1208
1 0.982946 23.5978 24.4098
1 16.4063 22.2897 5.65385
1 2.35054 21.7126 24.2744
1 19.154 24.2386 15.8652
1 7.85659 26.0011 7.62444
1 7.55459 2.2493 4.53464
1 3.86599 25.4991 7.3932
1 6.10233 23.2296 2.88244
1 29.694 9.26548 13.1124
1 11.6998 14.1267 21.144
1 8.43764 25.2328 27.4314
1 16.764 1.37841 30.3194
1 28.6905 13.2646 19.856
1 17.6257 28.9579 24.4162
1 6.02135 23.9378 6.08382
1 22.373 13.9432 12.6161
1 9.82256 29.83 28.7437
1 13.2759 10.897 3.13418
1 4.12471 4.74289 10.9454
1 9.03401 19.9503 18.9221
1 10.2284 13.9711 9.38963
1 13.8142 18.59 27.0453
1 10.3822 20.3629 13.2238
1 24.3995 6.35891 18.028
1 19.3821 27.4205 11.8168
1 15.7505 11.4483 3.7671
1 2.45275 26.0734 13.684
1 18.8969 17.1023 1.7512
1 6.59171 21.2269 18.0217
1 7.55249 22.2688 16.2324
1 9.3823 11.9088 13.0261
1 28.6164 6.60529 15.7948
1 9.99006 20.7762 16.7593
1 3.37748 27.5834 27.0399
1 13.6718 0.44083 14.2486
1 27.9593 17.7843 24.8575
1 6.99043 23.3041 28.6305
1 21.4979 16.511 6.65218
1 23.9931 14.7214 24.1242
1 25.3205 13.2064 10.6858
1 13.0823 1.56981 3.06789
1 25.8618 8.97051 20.2938
1 24.0225 28.976 12.5089
1 11.0192 8.723 11.9337
1 22.2057 5.4525 12.2894
1 27.9052 20.2483 22.9829
1 28.0741 24.0982 15.7724
1 9.41508 28.7329 29.3255
1 5.52376 25.6508 16.2501
1 13.2254 21.2394 11.525
1 14.0286 22.7801 19.2419
1 1.55244 15.9038 4.84032
1 0.673022 19.5217 27.6712
1 8.07268 10.0176 29.1222
1 22.5152 6.85601 4.71189
1 17.3161 3.30401 22.6617
1 22.9267 10.0596 13.5013
1 4.27473 29.0272 2.37413
1 18.5501 17.2715 15.7477
1 28.3736 26.2621 10.6427
1 8.90744 29.6844 21.6556
1 13.703 6.49695 3.48205
1 18.3385 22.4306 25.1192
1 1.00677 25.921 2.96474
1 9.62987 24.6972 14.5251
1 4.26715 12.791 19.3396
1 18.3531 6.84378 28.889
1 26.3292 3.83028 8.84067
1 12.6772 8.48058 2.31883
1 2.62797 14.2586 25.4383
1 17.3215 16.8459 7.65874
1 9.10273 13.2529 1.63109
1 16.566 10.1964 26.945
1 18.1103 23.7877 27.3834
1 17.285 5.70401 21.9379
1 7.15696 27.4296 26.4889
1 18.2125 6.2157 14.466
1 0.257989 0.299958 13.5442
1 27.39 16.5691 14.634
1 16.2949 23.9777 14.9229
1 24.65 14.3649 19.8078
1 7.82886 23.0821 18.6102
1 30.2383 14.4676 15.5763
1 8.86289 4.20223 19.684
1 24.866 26.7092 29.6
1 24.0313 17.7242 6.75139
1 17.6806 8.95456 24.4383
1 28.7816 26.0341 17.3579
1 17.9821 7.14595 3.6018
1 11.703 17.075 3.31599
1 14.4982 8.68749 20.9575
1 26.5478 15.3426 14.3025
1 24.0877 4.37537 23.8806
1 24.9458 22.0702 12.7557
1 26.6531 8.35013 21.5205
1 6.75516 29.3787 27.4649
1 18.8515 1.24056 28.7853
1 18.2258 28.5726 9.97563
1 7.90946 4.62362 4.20827
1 8.93252 24.3065 21.9304
1 5.47911 24.5157 1.97495
1 3.41552 23.8047 25.2787
1 3.58249 19.6828 17.0418
1 29.5872 13.8507 0.205891
1 24.9696 29.7026 20.2591
1 26.6713 6.08516 0.872982
1 9.94162 5.16249 14.1324
1 27.4542 21.7699 21.184
1 18.0982 13.667 10.3249
1 6.61691 13.2335 18.6133
1 12.8788 25.7075 20.8505
1 29.5292 27.2839 3.65375
1 3.37564 14.1821 6.23632
1 22.3705 14.62 17.0615
1 22.4468 4.34473 20.3271
1 14.2162 21.3996 28.547
1 18.8094 26.1064 13.559
1 20.0591 1.91227 6.24585
1 9.15515 0.859896 21.2773
1 22.6369 9.66452 14.8523
1 6.45167 12.933 24.9281
1 12.1869 28.218 28.1191
1 7.13291 6.74249 15.3529
1 11.5545 0.431322 21.5097
1 21.2743 28.9243 7.39439
1 17.5721 3.21754 19.6562
1 3.28949 20.1685 28.3673
1 0.824633 3.81721 19.1034
1 9.47434 23.8209 0.65799
1 11.5616 16.289 9.5135
1 20.5258 25.7618 11.7424
1 19.3543 15.2713 8.60364
1 21.4934 21.7878 27.8292
1 2.26794 27.5514 24.2046
1 9.85005 8.38335 18.7076
1 26.4572 0.532515 10.6025
1 29.2491 25.2585 5.82948
1 20.6034 29.6955 8.46721
1 24.1895 1.02168 1.14116
1 28.756 16.212 14.8848
1 18.309 4.55476 10.9068
1 23.8311 24.3234 13.0733
1 3.85806 12.0886 14.5404
1 0.403879 0.906583 21.8085
1 11.8179 22.284 13.8229
1 18.7986 29.3007 23.6741
1 19.2482 13.8104 3.18862
1 1.31789 18.3283 5.58568
1 1.81562 17.5143 26.7112
1 13.9181 4.05383 19.4976
1 9.32326 28.1234 19.8523
1 9.10104 20.9 28.5833
1 6.48036 7.31612 28.1395
1 27.2162 9.76389 4.88791