4096
Atoms. Timestep: 420
1 19.7598 12.5928 5.42681
1 20.7893 25.5633 24.3538
1 6.63636 8.35953 8.07978
1 19.0889 9.19884 21.9501
1 2.19402 21.4122 4.04058
1 8.82072 18.572 27.5798
1 20.9162 30.2516 10.7994
1 26.2089 29.6538 7.24317
1 11.2426 1.83949 9.40778
1 21.8487 14.2124 29.4074
1 16.323 12.9247 25.1241
1 23.1315 27.5905 19.6791
1 14.421 0.518969 18.308
1 15.7034 30.6087 28.9134
1 24.3341 25.3809 13.6983
1 0.461771 28.3781 21.9895
1 25.901 25.9015 16.0574
1 7.93549 16.614 25.4423
1 2.66569 11.2175 3.59889
1 0.619191 2.15288 17.0524
1 8.20388 26.7034 11.0877
1 11.0503 25.3002 13.0488
1 15.6697 11.7156 12.9854
1 9.26718 20.4824 23.1518
1 11.2342 8.26036 9.90421
1 26.0976 7.5116 12.28
1 19.0214 29.5404 5.63156
1 8.70866 8.49341 10.658
1 15.4531 15.2741 1.71254
1 8.26567 22.7672 24.5651
1 7.10233 19.9693 19.1374
1 6.35073 12.987 2.83461
1 14.7805 14.5715 12.7508
1 13.7381 13.0031 18.9034
1 7.82801 22.0986 11.8306
1 7.80844 22.9865 21.9847
1 26.3598 11.6716 12.5243
1 16.0578 25.3107 22.0061
1 11.1527 11.9732 3.88001
1 1.37841 11.7208 15.6495
1 17.8441 7.26123 17.3572
1 29.7633 18.0781 8.20539
1 3.79457 18.6599 15.636
1 18.1796 13.687 13.8886
1 19.5277 3.77948 27.7333
1 17.8985 2.83177 15.3572
1 12.9061 4.2444 19.2979
1 12.162 8.64817 26.6243
1 6.38465 22.2056 8.54474
1 20.5808 1.23021 10.1765
1 20.9378 4.96214 3.63907
1 20.0114 6.7883 13.9797
1 4.95858 19.8749 16.0534
1 13.0781 11.4221 8.36541
1 7.01208 21.9989 24.7137
1 23.7639 7.79737 12.3341
1 5.04302 6.63178 20.4044
1 10.7745 22.1544 29.1621
1 5.511 25.3682 24.3813
1 24.7411 9.05535 25.891
1 28.8283 7.36378 17.3685
1 3.768 26.615 12.7182
1 20.4793 17.3122 8.67862
1 7.16025 7.63818 4.72646
1 2.04039 1.24372 13.2825
1 19.9979 24.8834 10.4039
1 20.9866 19.4152 29.6525
1 22.9875 19.488 11.0168
1 28.1299 28.419 21.2845
1 16.0669 6.68458 5.49414
1 15.4337 26.2907 27.5586
1 27.5468 27.685 1.81978
1 0.987351 4.99977 28.2387
1 9.35929 30.3175 12.9528
1 29.3278 1.2317 11.1853
1 19.8802 3.64125 24.5686
1 3.94395 29.5671 12.1386
1 28.5623 0.436552 22.6989
1 5.14092 9.40007 0.754734
1 0.477401 1.26529 15.8522
1 21.8078 9.3928 0.0596712
1 20.1585 19.3098 19.8763
1 22.7828 6.3121 16.2602
1 29.597 21.1847 1.53821
1 18.3742 8.77105 5.59718
1 3.79425 25.9364 11.3709
1 25.357 3.55181 27.7747
1 26.4717 29.4202 3.23098
1 13.7021 5.88851 20.7308
1 26.3151 15.5349 19.8984
1 20.8817 24.3185 7.09922
1 7.06947 4.57143 2.08963
1 20.8218 27.0527 25.9996
1 28.7089 14.8307 13.5031
1 26.9738 20.9685 4.865
1 15.5344 21.7172 9.68171
1 24.6402 19.2931 8.0013
1 4.90757 2.35036 4.7293
1 16.1205 1.98622 16.2903
1 10.7765 20.5397 2.64601
1 9.50999 7.80711 6.01191
1 0.647046 18.8702 23.3332
1 17.1193 19.5224 14.3599
1 11.1115 3.82366 0.756432
1 17.7124 21.2464 16.062
1 29.9846 18.8624 1.43354
1 2.17033 10.5405 10.3821
1 10.8652 1.74583 21.9485
1 11.3471 3.25749 12.5949
1 12.2023 28.1199 27.7043
1 10.9298 9.24895 7.28369
1 15.6559 27.5253 24.6894
1 24.14 0.99282 7.70825
1 20.3163 24.9166 0.739703
1 29.4144 14.79 25.4573
1 22.6357 16.9671 13.9003
1 15.4274 26.6052 13.8651
1 30.3512 22.1544 4.47738
1 14.9121 29.2079 8.94436
1 20.0082 15.0901 7.61703
1 20.7606 1.54204 20.8935
1 26.0396 20.0821 4.82622
1 22.3707 3.29147 10.2682
1 20.6585 29.48 20.1289
1 5.59724 15.1381 5.03232
1 16.1769 12.7677 19.3025
1 0.678967 20.1085 10.8388
1 16.4323 22.4584 12.8265
1 10.6577 19.1014 14.6183
1 2.72307 23.9747 13.0336
1 27.8251 20.3103 20.3609
1 11.3655 15.2413 12.9432
1 7.9926 25.4621 15.6381
1 6.33305 4.35503 0.79838
1 1.91132 19.8059 16.6521
1 20.314 3.9393 12.599
1 14.239 8.09519 10.156
1 17.4638 11.9859 19.1389
1 12.4783 20.7735 21.2087
1 1.08228 23.375 7.41881
1 17.5626 27.3224 30.2
1 7.98599 28.1485 24.1999
1 17.6826 27.9565 1.28052
1 17.1043 24.8753 9.29409
1 22.5246 21.8732 10.9069
1 22.6865 25.25 17.1534
1 0.427619 13.3121 13.7814
1 19.9779 10.064 25.9489
1 20.4891 5.87861 5.91974
1 15.8044 24.4155 14.5872
1 26.2428 25.9016 28.1843
1 1.56105 22.0291 1.14577
1 23.0884 11.6049 7.15215
1 20.3734 26.4509 2.40366
1 3.51019 18.2899 11.1803
1 23.3184 4.28082 9.67887
1 7.29547 18.9542 14.0295
1 12.826 6.31715 26.7765
1 5.45232 21.475 30.088
1 29.929 11.0879 25.6242
1 22.6698 24.1727 4.0773
1 6.61238 29.4235 19.2254
1 3.94814 20.7832 18.4058
1 11.2515 8.60532 0.624366
1 23.2688 26.7079 12.234
1 29.0037 9.44973 9.41341
1 19.981 29.0045 0.658092
1 11.8876 15.6938 19.7011
1 17.7043 11.4587 16.0537
1 11.394 15.6258 21.2817
1 5.27466 23.0375 26.5943
1 9.76534 7.03131 21.4703
1 11.0901 18.6861 20.4308
1 25.9963 7.23441 17.705
1 23.1615 5.38473 7.46617
1 14.0187 13.7083 24.0547
1 4.3584 16.0374 11.7364
1 9.97806 0.157173 6.23573
1 23.7333 16.6116 17.4422
1 1.33032 19.0348 11.0733
1 8.7441 8.4917 12.3106
1 19.4941 12.5937 26.0135
1 5.16175 14.0209 22.1508
1 12.6723 4.18193 3.7607
1 1.65373 24.4764 7.75103
1 3.49591 4.70039 11.8392
1 21.3603 0.631834 2.06864
1 2.6021 16.3053 21.6844
1 16.5331 9.25261 14.1757
1 26.6411 4.2435 7.38741
1 12.5434 16.5709 7.0968
1 1.43246 11.7388 22.4095
1 3.36925 12.0202 19.8797
1 12.5592 12.8954 12.5278
1 20.6112 27.4729 22.5225
1 1.56249 2.84563 28.0638
1 5.77815 18.6384 13.8522
1 2.20359 11.6641 13.85
1 8.08221 1.92669 11.2199
1 19.8567 20.2922 29.69
1 1.30407 28.5853 25.5078
1 30.6926 30.0086 3.15229
1 21.7642 17.3127 2.48032
1 13.974 4.61914 5.71708
1 1.68624 19.3314 7.63643
1 12.5234 7.5602 17.9693
1 28.6517 26.792 18.6488
1 27.4456 18.1874 29.1254
1 26.088 23.7829 22.5627
1 6.03635 5.97893 25.8527
1 18.6088 5.38453 1.64557
1 14.867 3.33026 29.635
1 18.5271 23.7277 3.89151
1 19.8767 6.39929 9.55661
1 2.62567 19.1812 10.5775
1 7.20269 8.76926 14.4041
1 27.9383 19.0189 26.5037
1 5.0805 1.7765 16.92
1 29.1677 9.51475 7.8846
1 5.69391 10.5063 0.274987
1 19.9078 6.2844 3.14438
1 1.61157 13.0085 14.2862
1 20.6713 8.0682 23.6578
1 5.84139 21.2505 3.04224
1 21.8767 16.7888 5.53632
1 30.3568 15.4313 21.5474
1 18.984 8.98525 4.30884
1 20.6053 30.3905 23.1639
1 2.27861 14.6506 6.53627
1 26.7485 25.4525 2.20989
1 5.75558 1.33843 20.7407
1 13.657 13.1614 8.23695
1 8.13013 15.1646 13.9291
1 4.93999 9.15514 9.5479
1 5.48127 28.9416 18.9145
1 26.454 21.827 16.861
1 28.3255 1.5892 9.96791
1 6.11284 8.95515 12.2007
1 16.4029 7.17046 28.3991
1 27.7167 29.0057 30.0315
1 18.6494 0.308001 20.4647
1 17.3201 10.5716 24.298
1 1.38834 9.47117 7.30889
1 17.1864 1.26622 27.4064
1 15.3248 18.0378 3.86683
1 10.7119 17.6627 6.03799
1 4.07635 15.0946 19.8712
1 12.5072 18.1163 4.12885
1 23.7324 23.2711 28.0442
1 19.2202 21.5459 13.3277
1 29.7234 20.77 4.66856
1 14.4971 8.24162 12.4237
1 17.8193 18.7236 0.814958
1 8.04003 4.36937 22.8139
1 10.2336 5.5478 8.30106
1 27.2724 24.4668 22.6093
1 18.8632 28.9981 1.37962
1 12.1805 14.7934 3.12182
1 4.63355 1.44549 10.9777
1 28.3419 2.78186 12.9222
1 8.2468 9.71129 29.659
1 8.25996 3.13678 26.8808
1 14.9484 16.972 28.0994
1 2.18923 13.1712 29.8304
1 6.28746 12.0706 11.9569
1 11.7174 21.8246 13.5632
1 10.3414 5.35853 17.9093
1 29.6444 2.06832 1.4716
1 1.80442 1.95615 9.96129
1 1.09604 25.8268 8.1044
1 6.68667 6.93884 5.94779
1 19.0489 2.45153 9.15918
1 15.1755 12.075 18.604
1 2.8867 13.7685 2.03488
1 28.1625 21.4764 26.1568
1 7.55952 6.32282 10.9215
1 24.6507 7.40017 0.265862
1 5.42834 29.4045 11.32
1 9.06272 21.4867 20.4172
1 6.42963 3.20285 19.0756
1 17.3266 11.8833 8.30562
1 -0.0268934 26.9933 21.5627
1 8.29495 1.46563 5.28469
1 25.5934 25.3304 7.66212
1 27.0528 7.3341 15.4391
1 9.39053 1.52625 1.66912
1 21.5324 26.4902 23.5864
1 26.728 18.8114 4.54212
1 16.2999 26.8524 6.29975
1 13.9321 10.2001 10.6721
1 19.2664 12.4211 9.94395
1 15.048 17.3704 11.1477
1 1.94454 18.1688 1.00357
1 16.2838 17.3175 10.5591
1 26.2617 19.6167 23.2145
1 30.3162 13.6463 16.7459
1 10.0488 15.1537 26.3729
1 9.93754 24.2733 29.7808
1 13.5769 28.113 13.2432
1 22.5123 20.7189 8.03469
1 6.45781 17.6242 20.0851
1 8.37593 8.68347 21.7527
1 24.7126 15.402 1.71414
1 9.22016 13.1275 20.8579
1 3.63183 12.1822 13.4937
1 29.2656 26.7676 7.75577
1 7.84163 25.4939 24.2871
1 0.786242 26.87 1.81752
1 9.08794 22.6631 26.9109
1 18.105 29.2506 16.359
1 22.2805 16.5256 17.0749
1 23.206 4.71485 2.72272
1 14.5255 3.78913 21.9601
1 26.6366 20.0327 14.0265
1 23.4198 9.44457 17.0254
1 11.1548 6.56968 26.7033
1 13.6081 27.6345 20.7879
1 13.892 14.4964 18.4794
1 18.9853 26.0848 18.2506
1 19.7781 16.644 23.2505
1 24.0561 16.7405 13.7718
1 21.0324 3.92206 10.0491
1 3.11501 14.1865 28.786
1 2.98732 28.266 10.7063
1 8.76162 21.8102 15.4039
1 13.6723 20.7484 14.9406
1 0.507032 19.3487 17.025
1 13.8626 13.7991 1.54651
1 6.33893 12.2568 27.2613
1 12.8465 11.6126 26.7864
1 13.3432 20.505 12.203
1 16.3125 27.7389 21.9382
1 18.5686 3.21279 16.53
1 28.0745 17.1334 1.73623
1 9.00371 6.50545 3.86989
1 5.36909 27.1502 1.30871
1 14.8492 7.22773 7.60308
1 9.94424 13.0325 26.6472
1 21.227 12.1719 1.02654
1 1.79431 24.2828 1.23786
1 0.923469 4.05872 16.0419
1 16.9848 20.1933 30.1058
1 24.1096 25.4554 11.8852
1 1.10878 4.55661 13.6895
1 0.556901 29.7223 21.0739
1 2.64925 5.68536 15.5695
1 5.1777 18.6198 27.9898
1 10.8556 25.3792 20.4169
1 29.331 2.57562 6.03526
1 2.18139 12.0734 7.57792
1 18.6273 7.49485 7.53181
1 17.9194 19.1954 27.4398
1 0.520912 17.6332 22.8122
1 13.3953 10.7422 23.3506
1 7.95105 2.84755 5.73326
1 12.9966 6.36666 11.3886
1 28.8802 0.100169 14.5014
1 22.6754 17.6955 26.5239
1 12.7727 26.4357 1.53217
1 17.3932 4.30359 5.98656
1 3.32031 7.75799 21.7163
1 27.225 21.8793 1.83075
1 21.558 22.4663 14.1138
1 16.9003 23.8566 30.2865
1 13.2304 17.2848 18.4973
1 15.9072 27.1088 28.7046
1 6.92089 17.7819 1.83234
1 22.1122 25.3078 3.44976
1 9.2662 3.50744 15.784
1 10.8235 29.5434 3.68173
1 8.62258 6.04632 20.921
1 22.1675 24.3324 0.590823
1 5.12707 0.66346 14.425
1 28.2458 7.1662 24.6587
1 11.4417 12.5648 9.91431
1 12.2367 26.6942 2.56518
1 23.9345 14.4413 17.5201
1 23.7948 22.4162 22.7458
1 19.224 6.8153 4.2021
1 13.4866 18.9782 27.2348
1 23.3772 3.24707 15.3161
1 13.3779 9.93874 24.6546
1 4.3715 5.63953 28.6781
1 24.213 26.6916 27.7435
1 20.1795 27.6547 3.18368
1 5.28161 3.22247 29.2067
1 26.6014 8.307 2.02326
1 12.5293 26.4536 25.7438
1 6.31033 6.52271 16.8535
1 14.2259 29.6315 19.2786
1 10.7608 22.1361 19.2966
1 3.5543 11.6999 17.417
1 22.2642 8.13281 19.6309
1 21.2344 21.8516 29.1001
1 9.84584 8.45313 9.6273
1 8.21279 25.5207 7.75327
1 18.4166 19.703 29.9045
1 24.1797 1.70173 2.9697
1 21.2508 22.7419 27.9252
1 16.4598 17.2536 17.6547
1 5.05393 7.15508 25.319
1 9.14238 3.20961 3.72122
1 17.3463 24.8528 1.06277
1 29.6207 10.3142 11.5995
1 29.3104 13.0836 2.96461
1 1.18818 29.4778 24.11
1 27.0899 3.44184 21.0436
1 5.62493 28.0474 13.4236
1 22.1399 10.7163 14.148
1 5.45064 12.9856 18.809
1 10.4217 17.205 4.75937
1 8.526 12.0888 28.7069
1 28.1245 14.4412 22.9642
1 13.3685 6.6572 29.181
1 21.3167 12.5892 5.21124
1 25.2872 25.8012 22.0462
1 13.2923 8.06958 29.7854
1 7.30529 2.34866 26.1614
1 1.84248 5.76925 20.6816
1 27.5861 5.66993 28.8442
1 7.32433 24.443 8.51557
1 4.16195 3.98066 3.38335
1 15.7601 28.6361 7.8864
1 1.09994 7.27555 21.6333
1 17.978 19.3464 11.2056
1 27.796 26.6939 7.70332
1 13.6969 13.0832 28.2972
1 9.72896 25.2466 21.3854
1 20.991 27.0205 15.7295
1 9.99317 29.2965 7.16719
1 13.1818 24.825 28.5952
1 19.6286 14.3809 28.532
1 23.4442 22.6444 1.63332
1 3.2201 13.2704 0.727783
1 14.7262 20.8906 5.1642
1 8.52368 3.21515 22.1726
1 11.2812 15.6918 14.2888
1 10.5112 12.566 20.5784
1 5.71621 12.2091 16.1653
1 3.52649 2.50222 21.8736
1 8.12413 13.7789 16.0237
1 24.8746 9.82142 18.6545
1 3.68229 11.8742 2.48783
1 10.4126 23.954 6.9702
1 15.5784 13.6574 5.53385
1 19.8639 9.65627 18.7325
1 23.8215 12.1293 17.7044
1 29.5724 6.52316 4.47134
1 6.6889 14.552 5.50719
1 17.5613 24.2047 27.8245
1 13.0507 24.9166 19.9308
1 25.9912 8.07753 25.6694
1 11.7588 8.01144 23.1869
1 10.9931 -0.0440114 5.26898
1 7.64943 14.0937 11.8642
1 8.64247 11.8833 18.6202
1 15.878 22.2737 1.36603
1 11.662 7.83951 2.70844
1 22.3552 4.29385 24.2063
1 2.12448 5.3043 22.1323
1 9.20558 29.5695 3.60605
1 2.87631 6.02038 19.5738
1 0.345188 9.42602 0.177386
1 19.194 5.91166 26.6364
1 10.065 12.0623 29.0185
1 28.4295 15.5761 10.6977
1 24.1455 29.5168 1.25913
1 27.3211 0.671965 2.85855
1 12.3936 26.8993 10.8766
1 6.87285 29.5691 4.3564
1 1.32882 20.5973 1.3669
1 19.7193 24.4609 7.65569
1 8.78772 9.76956 0.599818
1 18.0678 14.6516 16.9854
1 12.6024 13.434 9.44098
1 19.5667 12.8549 7.76989
1 5.37083 19.6375 13.163
1 26.7569 16.2545 13.9238
1 27.8176 10.8345 11.3405
1 16.3164 1.47536 13.8106
1 14.4842 2.4827 22.837
1 24.1771 1.3871 14.1427
1 27.2155 13.1946 29.8323
1 18.232 27.6656 20.5545
1 3.61691 1.33545 18.6564
1 12.9203 18.9041 3.01265
1 12.2891 19.642 20.1452
1 25.5694 16.6881 20.1723
1 15.8043 6.63376 17.8651
1 21.9356 13.0318 14.3482
1 30.2898 17.0094 17.9515
1 27.1423 27.4524 5.19436
1 8.98921 20.4698 13.0452
1 13.3409 16.4042 22.1215
1 10.8339 26.0576 2.80408
1 9.39122 27.9739 5.51883
1 8.52627 0.191944 5.86146
1 21.4057 25.3149 10.2911
1 18.3565 10.3275 13.7995
1 7.03468 6.7064 1.34954
1 16.248 13.2151 21.7584
1 18.9283 13.8334 12.0082
1 20.9816 28.7154 17.7442
1 23.2961 4.34726 0.205902
1 20.9733 16.5895 11.2097
1 14.3254 23.1408 8.74029
1 22.8929 10.1622 1.04374
1 29.7646 7.22185 13.4819
1 1.45186 14.0664 2.48931
1 27.1159 7.53632 21.9835
1 28.4877 14.2408 28.0985
1 16.983 8.988 10.0085
1 12.9225 21.9761 3.1093
1 24.2798 1.00056 18.9221
1 19.8373 2.66034 25.5209
1 20.0574 15.1382 4.02374
1 15.5904 26.7966 15.5714
1 9.9072 29.9765 23.2696
1 0.682962 25.7365 17.7487
1 5.43756 4.5086 21.7372
1 5.00701 26.8796 2.65974
1 10.6855 12.2642 19.0353
1 2.30726 25.2741 23.7634
1 4.1303 30.2068 1.38058
1 17.8844 19.424 23.1897
1 3.3561 6.25545 22.5848
1 4.51385 3.05871 17.6834
1 21.7719 11.4965 28.82
1 23.5524 0.847118 5.19315
1 16.7289 4.40328 25.3275
1 18.9372 10.5256 27.9701
1 21.122 29.2621 27.0376
1 18.9149 28.8872 18.6715
1 6.98025 27.8709 15.2704
1 3.75447 9.55545 24.8089
1 17.9271 22.6896 21.4213
1 3.35489 11.7189 8.45504
1 25.3298 17.3462 29.3703
1 21.389 0.115165 14.5081
1 3.28942 11.8321 1.13758
1 6.41404 25.2447 26.3304
1 6.08615 10.9326 16.4562
1 0.291346 8.65554 6.95284
1 26.5315 10.0649 4.91869
1 18.0544 29.7697 19.3057
1 13.711 0.260798 4.63154
1 15.4883 25.3584 13.5985
1 24.0178 22.0223 10.9353
1 13.1304 0.800362 22.052
1 20.6564 11.0377 11.5348
1 2.57535 18.2351 28.1223
1 15.8588 16.9629 25.3361
1 24.3768 21.9289 4.45924
1 19.9156 30.0246 25.0846
1 30.0225 12.4355 29.9429
1 24.4045 28.6557 13.3066
1 6.29667 16.2264 12.4916
1 29.2289 5.18852 1.77326
1 23.8542 18.0723 26.1514
1 21.8579 2.24978 0.293923
1 23.7032 19.4221 17.3801
1 8.81033 11.1333 4.20466
1 27.6525 23.0002 28.8562
1 3.2671 17.0343 11.1206
1 8.28574 8.2475 5.28503
1 2.39904 7.76848 30.1853
1 4.62082 15.2855 17.5928
1 6.65326 1.30535 2.75745
1 26.0344 28.9137 0.00454806
1 22.5035 6.77291 2.25046
1 3.91715 26.1164 2.93218
1 15.9355 0.388634 14.8551
1 1.84716 17.0065 26.1404
1 28.366 10.4366 22.0565
1 13.3297 11.287 25.3937
1 13.3392 25.0808 12.2302
1 14.649 25.5002 12.2453
1 9.20078 25.7802 8.77824
1 28.0497 26.203 19.7291
1 29.2792 2.20644 16.7153
1 8.32368 18.7609 24.8781
1 11.0984 18.1381 17.9022
1 3.7409 4.26876 1.96761
1 28.308 23.3696 16.3563
1 21.0507 7.20393 29.6805
1 24.1826 28.7524 20.6599
1 7.99743 20.9549 18.5276
1 7.79573 24.7552 4.88205
1 29.5764 19.7084 10.6918
1 19.7699 9.19535 2.06108
1 28.6525 18.5158 1.67182
1 1.06205 7.45073 16.7531
1 6.17652 3.04242 0.079575
1 8.51636 17.9445 5.76658
1 18.0549 1.6693 20.8716
1 5.54526 14.5828 28.247
1 22.4141 1.78236 17.4561
1 7.39025 2.69999 16.9391
1 12.23 21.5403 5.13712
1 17.6532 23.7326 18.8426
1 0.93314 0.788472 24.2092
1 22.7343 27.1513 9.76027
1 20.082 24.6803 22.001
1 2.2857 20.3019 22.5614
1 6.9907 8.84541 25.0321
1 25.4825 27.4306 2.04572
1 27.4963 10.0036 26.0882
1 17.8769 21.1561 18.4222
1 6.51288 5.26067 5.7034
1 16.7992 12.4999 26.3465
1 28.343 20.391 5.09587
1 22.8071 24.6539 23.1971
1 11.6359 28.9719 19.8224
1 16.3875 23.2099 2.32026
1 14.0006 18.5667 9.53322
1 15.4968 22.1686 19.9686
1 9.48506 3.79696 21.4211
1 9.30265 16.6726 20.845
1 27.5927 21.5574 22.6993
1 15.4709 20.7402 23.8371
1 29.7036 21.582 19.8211
1 27.4263 28.9299 10.6603
1 9.76102 8.42922 21.4881
1 14.8876 7.10284 15.4196
1 17.0726 8.1915 13.4243
1 22.5274 1.99475 8.75982
1 8.80033 22.4895 8.62551
1 23.1677 6.72206 15.1415
1 3.51525 19.9939 1.98702
1 14.9059 5.09525 3.62727
1 24.5585 28.4453 10.4549
1 9.46655 21.4486 7.52597
1 13.9162 22.8833 13.5153
1 26.3584 8.10629 9.18384
1 17.6239 9.06669 12.3621
1 11.7333 4.9925 1.51939
1 8.12202 27.689 8.12119
1 26.7694 2.44469 25.5754
1 10.5307 9.95698 9.78833
1 4.84324 6.24806 8.88803
1 21.1958 9.22122 26.7
1 18.4509 18.5253 8.34021
1 28.5958 4.24097 10.3463
1 20.688 12.0063 7.82152
1 26.1527 18.2473 29.3602
1 22.0298 17.5759 20.1964
1 25.2572 3.32217 0.354784
1 13.8594 28.9177 14.879
1 8.94244 25.3917 5.42832
1 25.722 27.6582 7.91193
1 17.8419 22.7082 2.58367
1 16.6099 6.64276 2.56344
1 7.95162 23.4533 10.7573
1 23.7171 24.5776 11.0175
1 14.2297 8.82412 11.2704
1 18.8706 9.41545 25.5168
1 12.8666 5.61089 23.3309
1 22.6355 28.3288 2.19308
1 16.9537 10.262 2.12994
1 7.951 9.64508 6.29328
1 1.50521 27.8071 30.4321
1 18.8713 26.3736 11.9725
1 21.6536 1.95154 12.2957
1 9.49045 6.29382 5.3947
1 6.36356 23.9269 2.98073
1 7.60698 19.7081 30.0387
1 7.15076 1.18748 20.6439
1 14.444 22.6711 10.0194
1 2.77843 3.96422 10.849
1 11.5043 5.52504 17.2158
1 18.9452 29.5341 3.74718
1 13.6455 23.4855 6.35821
1 4.71399 9.06954 23.8918
1 2.57876 16.5162 15.025
1 29.9209 15.7837 8.2064
1 9.95245 7.72947 0.641153
1 26.2501 16.1412 23.2344
1 3.46444 10.4081 16.6399
1 1.6851 26.7601 29.2195
1 9.28242 10.234 24.5536
1 29.9187 20.6646 7.58576
1 4.57011 21.0953 7.99999
1 20.3572 13.5456 20.346
1 0.281288 11.328 12.2663
1 18.3245 4.5559 17.1428
1 24.438 16.404 5.40198
1 8.51025 19.8608 3.42099
1 26.979 5.11998 1.1436
1 15.6304 6.64612 0.409477
1 22.9933 7.98249 2.4783
1 15.9611 7.46701 12.9849
1 6.67478 21.0806 9.35627
1 6.65081 12.9634 5.39516
1 18.6699 18.7449 13.5652
1 18.2622 27.5064 11.7161
1 6.999 20.8676 25.7564
1 5.84374 2.2183 2.4002
1 15.5681 18.3259 18.5451
1 12.3228 29.3386 17.4267
1 8.45595 16.5711 23.2984
1 7.16289 24.103 13.8683
1 21.5388 7.49261 28.3839
1 0.889273 20.8161 7.17556
1 17.8719 22.9148 24.452
1 11.8095 2.62435 21.8788
1 3.26723 3.53146 17.1401
1 10.6502 18.4921 3.10206
1 11.2991 15.163 10.0102
1 20.7689 30.0295 17.2283
1 11.8383 4.83365 28.4165
1 14.3882 28.328 19.3234
1 26.1709 26.8078 20.1909
1 23.0458 21.479 1.98983
1 26.5826 5.81868 2.44201
1 7.23187 5.14924 4.47611
1 13.8501 0.874838 30.1634
1 8.97337 2.77761 11.6435
1 21.1362 8.92618 28.1415
1 6.96477 6.02719 2.53319
1 19.1211 1.08011 29.4451
1 1.0086 10.7971 13.3475
1 7.62695 7.86607 1.68698
1 7.511 12.8053 12.6517
1 17.9091 25.9665 26.2975
1 24.3411 9.12671 24.6441
1 17.3594 6.63552 4.97957
1 24.0839 8.1002 14.9368
1 18.8414 20.3058 3.39083
1 12.2923 18.5997 27.5131
1 2.40331 4.27903 16.2741
1 19.6137 16.182 11.119
1 0.83984 6.27838 28.2748
1 13.8149 18.2803 30.1321
1 4.38494 20.3393 13.5762
1 18.8283 10.4715 8.47174
1 7.20536 6.64335 18.9077
1 0.511193 4.1148 7.04237
1 24.7317 7.68316 17.8769
1 4.72882 13.941 0.0873407
1 13.2119 4.71187 11.4083
1 3.89325 3.53705 14.234
1 5.68001 8.77316 28.3985
1 24.4946 12.8686 26.0382
1 5.31606 11.6353 7.24837
1 13.3746 15.1073 22.6099
1 28.5095 3.33617 16.8219
1 26.1223 2.53345 16.3345
1 16.2799 22.2612 7.48283
1 1.01921 7.96696 30.0166
1 11.2199 20.3429 16.6502
1 28.1324 4.69947 5.66956
1 29.7128 8.93058 12.2395
1 5.38755 12.4657 14.7498
1 17.2612 0.860408 13.0205
1 20.9221 16.0953 23.6346
1 23.5704 3.65802 4.81719
1 24.5894 19.6753 10.938
1 27.6515 16.6294 7.86079
1 18.759 1.82016 23.3835
1 23.0911 2.70512 22.0045
1 1.42409 8.58739 17.4546
1 8.9207 5.94233 17.3412
1 19.8738 8.53803 11.7465
1 6.83883 14.994 19.2159
1 7.77133 20.3251 8.03959
1 6.25186 13.2826 21.2785
1 14.7364 20.152 14.0623
1 14.4226 12.2957 13.3343
1 11.9139 21.9161 3.85652
1 25.7213 6.59147 16.2057
1 2.00049 3.06191 25.1923
1 26.258 11.5855 20.4684
1 13.6864 9.01218 16.3787
1 22.8188 4.62351 18.0355
1 3.47171 15.3185 5.37723
1 19.7277 12.1215 16.1734
1 22.8139 12.1889 22.6174
1 17.7722 12.8791 3.72778
1 16.9041 29.6062 7.69106
1 27.1352 15.5222 25.952
1 3.2936 29.8034 10.6968
1 14.9063 16.1479 4.38636
1 21.7817 29.4076 4.05792
1 0.696656 4.63935 3.89873
1 19.4537 14.7735 19.9705
1 14.3444 24.6981 2.15238
1 4.61429 19.4923 26.6463
1 7.40083 0.0443047 0.323342
1 4.55142 25.1674 19.2126
1 30.047 2.0824 26.0793
1 29.2977 11.4907 22.4792
1 27.5259 11.5174 7.89794
1 4.5992 20.5861 6.31402
1 19.5981 21.6135 23.1541
1 -0.01896 27.6804 2.79391
1 22.4585 7.26525 18.4406
1 8.72732 12.969 9.87028
1 29.4322 5.67625 21.9583
1 29.623 29.1916 5.49599
1 12.4841 30.1385 5.48348
1 16.1137 14.1804 8.6519
1 25.0286 6.88344 14.7115
1 4.97004 26.6812 13.4688
1 18.4969 27.0631 28.0843
1 19.3939 7.138 26.958
1 21.5202 21.1866 20.1825
1 8.86574 2.45691 16.6133
1 20.5731 8.01593 16.8537
1 1.91566 20.6059 25.4326
1 12.3918 17.0453 12.2191
1 19.842 15.9587 1.15988
1 9.49933 16.1952 1.65312
1 7.85082 14.0111 3.03527
1 20.2314 9.14588 4.17936
1 24.5678 23.1636 16.9718
1 5.5232 20.2783 5.36285
1 3.33779 8.96207 29.4475
1 21.8151 2.57902 3.255
1 19.5939 5.68724 22.4034
1 0.332298 10.3359 28.0656
1 5.69266 8.04194 27.1267
1 0.983723 9.73952 2.63469
1 11.698 18.4251 11.8802
1 4.62554 15.237 22.1896
1 19.9412 30.0482 26.5892
1 27.0325 8.15172 29.6337
1 0.279136 2.74362 28.8937
1 17.4278 4.67766 7.47394
1 2.86004 27.6232 13.2545
1 12.1573 18.8528 14.2952
1 25.705 7.86169 6.44984
1 23.0293 22.032 4.56938
1 12.7947 10.39 12.8355
1 30.2862 13.2988 0.607778
1 20.0794 13.7874 22.9984
1 7.48678 26.1711 28.8317
1 5.76502 26.8501 15.6041
1 15.7611 13.8631 20.6724
1 20.1497 22.589 27.053
1 13.4849 16.4757 1.44441
1 3.78193 27.6577 28.5206
1 9.78604 27.6673 20.1189
1 5.2927 26.3396 19.6431
1 7.40491 12.0117 19.45
1 10.9403 9.95814 19.9889
1 10.1501 10.6798 1.09547
1 21.255 7.24314 13.3238
1 3.80526 25.6656 8.3104
1 3.39452 3.82971 5.31399
1 5.21087 13.0104 11.7717
1 8.76861 21.91 1.91549
1 12.48 24.9222 15.3058
1 14.2979 9.95699 19.4644
1 26.9447 19.0267 10.5854
1 1.64366 8.10767 13.29
1 7.96822 15.421 24.2182
1 2.97074 11.6152 28.6205
1 7.28923 0.348196 16.459
1 20.3452 17.0124 13.6548
1 13.6671 16.7786 8.10903
1 25.4443 20.3359 13.9812
1 18.5864 9.08584 10.3139
1 29.5227 7.74445 23.9762
1 10.5071 14.3919 25.2429
1 26.3682 19.3487 2.11329
1 8.96478 25.9758 26.4465
1 23.7583 19.4542 23.3908
1 26.1839 25.0943 5.0683
1 4.08556 25.8939 25.1039
1 24.4934 4.09127 29.789
1 1.98627 21.2226 16.3731
1 13.1396 10.9818 11.4376
1 4.17056 16.2027 26.6399
1 28.5353 2.44332 8.41763
1 26.7608 22.3466 4.5961
1 -0.0758358 22.8839 19.2258
1 29.5655 19.6982 13.7736
1 15.4894 14.8372 0.235733
1 18.7689 1.25154 13.2962
1 14.4185 21.0386 16.1527
1 9.39084 14.9327 7.59122
1 25.2696 1.80428 23.6388
1 16.5586 15.7479 13.9059
1 2.05756 23.6083 4.68103
1 9.80895 11.2624 6.26798
1 28.4163 27.0932 15.7277
1 4.14983 8.08376 13.8025
1 13.6371 23.5839 12.3057
1 15.9391 20.9496 20.0879
1 2.05806 15.9466 23.9273
1 23.5898 8.6356 26.6497
1 24.4354 10.6794 27.9778
1 15.2501 10.2084 13.5947
1 19.8915 11.5324 3.41171
1 21.3737 25.2419 17.567
1 23.0891 10.4137 3.53708
1 8.85469 27.4372 10.1834
1 22.2035 1.40896 28.0525
1 20.4705 11.4932 25.9417
1 25.5662 17.5517 23.298
1 25.9756 12.3385 7.43408
1 29.9401 17.3467 11.2272
1 7.76409 23.5816 28.4031
1 25.1559 5.20974 16.8754
1 11.208 7.55453 28.6499
1 4.37992 12.1619 28.7545
1 13.0945 19.3382 24.5217
1 28.8381 9.80983 17.9161
1 28.4446 16.5178 19.4924
1 29.2288 2.6495 27.1982
1 24.2 1.80195 11.4121
1 12.0205 6.37182 28.8649
1 9.79864 13.0169 12.7713
1 1.96415 22.0556 21.238
1 14.5462 16.9996 18.8137
1 27.0183 1.60869 18.3253
1 22.2903 9.64619 26.156
1 24.2537 11.3367 26.2125
1 8.56509 9.74236 16.2664
1 16.3382 28.6373 1.66158
1 23.9191 20.3162 1.83891
1 10.5499 26.6124 19.8308
1 15.4721 24.265 19.0786
1 23.2973 24.7841 19.3734
1 7.46343 18.6012 6.37476
1 30.0114 27.8366 8.21892
1 2.55373 19.5935 28.7483
1 24.0822 28.8799 7.25131
1 26.7054 24.9613 13.8256
1 1.52932 24.3962 13.4855
1 14.1055 10.308 16.0734
1 20.6395 16.2291 30.2254
1 16.8789 18.4476 8.07646
1 10.0535 23.9313 17.6349
1 23.7368 23.6866 22.6928
1 18.2547 21.9072 1.48924
1 18.4572 0.432264 24.4332
1 18.5727 28.2988 21.7031
1 18.6042 4.63674 22.8248
1 10.8806 9.29876 2.74279
1 28.4126 16.8433 22.6582
1 4.57575 1.86735 15.4904
1 0.810001 4.67693 9.72496
1 10.3046 16.0317 5.32035
1 7.62076 29.5366 26.2819
1 27.9952 30.2876 27.8123
1 24.8074 13.0195 22.8228
1 15.879 17.3415 0.871539
1 4.43078 11.7131 18.7677
1 9.78263 14.1245 11.9436
1 15.3422 29.3547 27.1204
1 1.70114 1.61783 20.2204
1 24.7171 11.935 14.131
1 3.89635 17.7487 28.1481
1 2.32637 2.78635 11.1523
1 25.5651 2.66455 22.3714
1 12.1529 9.46959 20.2248
1 22.639 20.7514 4.98297
1 0.515107 22.3055 10.3977
1 27.2545 5.86048 3.64024
1 0.85031 1.47149 19.1439
1 8.33503 29.8573 11.3411
1 13.4142 24.1996 24.4277
1 28.2302 12.9671 25.8572
1 13.0325 13.4251 15.8486
1 23.812 26.7396 16.022
1 17.145 4.65822 18.0499
1 14.3291 14.8663 4.02115
1 22.9024 12.7296 11.0939
1 6.71638 4.00097 17.06
1 6.20525 29.223 2.00568
1 13.6301 1.75797 4.10731
1 29.1505 1.05864 6.44493
1 12.8589 1.29356 9.24565
1 2.89984 4.14621 27.1495
1 8.83278 18.1968 17.4849
1 13.2255 4.74669 22.1735
1 15.6693 25.0644 24.8442
1 16.5221 26.5037 29.7582
1 1.08678 14.0648 0.0242707
1 27.5872 22.6755 19.4409
1 10.7451 12.8257 25.2963
1 1.16723 29.4356 30.1157
1 7.3116 12.977 0.476331
1 12.2211 6.74452 8.24688
1 10.8537 10.2555 16.6104
1 16.562 9.29267 27.8627
1 27.4823 30.2998 16.3328
1 29.7781 18.1104 17.3179
1 19.336 29.2075 12.8939
1 21.7925 25.4779 14.0928
1 1.63408 22.9473 25.8269
1 3.45963 23.8464 4.50126
1 20.9763 4.24473 23.9596
1 20.9512 14.2647 25.9978
1 25.122 1.14309 27.8413
1 2.67794 28.3867 2.58925
1 26.936 12.2973 25.3678
1 23.8524 25.8161 18.2293
1 16.655 12.5344 29.0081
1 9.72167 12.1723 3.38974
1 0.398914 11.3066 20.316
1 12.574 19.9117 18.8791
1 15.1215 1.66862 20.5133
1 11.0617 4.16975 14.8529
1 16.5101 26.5546 4.9902
1 19.8169 17.0552 5.85397
1 13.6385 14.5188 25.2947
1 29.5998 14.9939 28.4177
1 11.7047 17.699 9.67973
1 -0.160042 6.17336 9.45314
1 25.6096 29.9645 0.811838
1 21.4175 1.56041 4.11676
1 25.9237 6.55094 24.6057
1 25.8016 12.9973 29.6149
1 2.7455 24.7405 21.4827
1 29.8606 29.9859 7.01263
1 13.9165 16.4124 26.6818
1 30.0168 2.24544 2.96087
1 7.06865 2.97541 10.826
1 4.32434 22.6128 7.94808
1 9.94195 26.579 3.72328
1 8.43842 9.38303 28.3247
1 26.5113 15.1594 4.97558
1 11.9392 8.69217 29.4742
1 5.17574 13.598 2.4755
1 24.0933 5.25133 17.8685
1 11.9865 5.56718 5.33798
1 1.14142 14.9203 3.59303
1 20.5939 23.8385 22.9811
1 17.1151 21.906 11.5117
1 14.4831 11.0773 6.57951
1 0.568214 24.4851 1.76327
1 29.9159 0.754284 19.1551
1 21.3229 25.4609 21.3531
1 11.5947 22.7127 8.11414
1 0.781719 23.8004 10.4101
1 24.4625 25.2113 1.50019
1 3.14196 9.62742 7.61104
1 24.8993 29.0351 23.2881
1 9.66148 28.1819 14.4897
1 27.5401 20.9974 13.6397
1 9.16765 15.4404 6.09423
1 4.31281 4.03267 7.88518
1 5.21387 24.5017 27.0328
1 2.82448 17.2641 1.37661
1 14.5225 9.03855 29.0307
1 21.9696 11.038 19.4425
1 14.4893 1.73424 10.8923
1 29.0737 3.43808 23.3919
1 5.95055 24.5231 8.82998
1 9.16105 28.6552 19.2932
1 1.25854 21.0044 21.8937
1 20.276 3.12063 16.4036
1 13.776 28.475 3.44534
1 6.399 15.1569 24.3196
1 16.7626 3.87164 3.45038
1 9.51266 5.14518 0.895289
1 24.1779 10.9087 11.6173
1 23.2626 5.39454 23.5449
1 22.3638 23.0659 0.986021
1 20.9021 14.9327 6.43317
1 23.3407 0.895087 9.21146
1 3.05279 0.416392 22.8748
1 2.82638 2.0956 1.17048
1 4.91972 16.6914 30.5913
1 6.31309 16.6738 27.387
1 24.3247 4.25924 12.1588
1 18.6785 11.901 8.60803
1 0.275885 25.9489 22.8491
1 10.432 21.2038 3.7259
1 13.698 20.7224 21.8551
1 27.9501 3.24223 2.73997
1 14.3292 8.35752 18.8642
1 0.0105256 26.4544 18.7902
1 8.06115 10.0652 27.1488
1 16.5569 28.496 26.8187
1 11.8409 15.387 26.7875
1 22.7688 20.3022 25.7192
1 27.0857 15.8399 28.9645
1 25.3503 26.1928 2.26687
1 25.5229 23.7397 25.1919
1 27.9381 12.7357 0.831317
1 19.0931 16.9948 19.233
1 23.3243 7.44195 28.9317
1 15.7345 2.25154 29.716
1 5.75616 3.96654 26.6756
1 2.32079 9.06129 19.6948
1 3.89425 2.96787 1.13627
1 27.3286 7.10318 14.1306
1 24.049 0.603544 3.8619
1 29.4154 25.9068 13.1575
1 13.5253 27.1556 7.22645
1 4.90126 13.341 23.3953
1 14.7217 28.6659 22.8937
1 28.4437 4.58593 28.5763
1 12.6391 2.72507 29.1439
1 7.01983 21.1383 27.0737
1 17.8787 2.24388 8.6364
1 23.6809 5.25674 20.3554
1 8.07627 20.3614 2.17031
1 11.2769 23.669 27.4802
1 24.5957 5.28474 7.56
1 14.1009 6.73357 10.5318
1 28.906 11.9372 15.6864
1 26.274 28.5184 15.5716
1 27.3759 12.1362 23.7552
1 8.31105 1.1754 2.30789
1 24.3332 29.8844 18.2806
1 8.71224 26.331 29.5469
1 9.59961 8.85841 2.85073
1 11.0449 26.5622 10.128
1 8.6014 14.8748 12.4256
1 2.82754 18.1273 23.2133
1 10.9941 11.6715 24.565
1 11.4924 11.8869 8.51177
1 2.6813 12.1157 26.0045
1 0.121701 3.21048 5.63068
1 15.314 6.12935 14.1665
1 27.6875 1.81972 19.3935
1 9.31805 17.6842 22.9564
1 5.68011 21.8094 27.3779
1 11.1804 9.89343 1.31739
1 9.75079 9.33612 13.1399
1 27.3295 1.25051 30.308
1 0.501567 25.4776 5.2755
1 5.10501 20.7517 14.7484
1 20.0284 20.1995 22.9978
1 17.5386 8.3184 1.11508
1 21.2975 24.8754 29.7714
1 29.608 23.6275 15.9872
1 20.6725 22.1059 7.66722
1 12.8866 21.6105 1.52343
1 16.9522 18.8361 24.2204
1 16.8887 13.4611 14.2793
1 5.62927 2.14162 24.4032
1 10.811 4.1632 23.6478
1 17.9781 29.5411 24.4866
1 4.50006 11.6396 14.3723
1 14.5152 21.6973 18.3796
1 26.6329 18.3058 23.4025
1 16.3512 16.9344 28.0227
1 9.90725 28.9799 17.8824
1 13.8541 7.99379 15.3945
1 8.59086 26.2456 21.5291
1 0.75654 30.0732 9.97371
1 19.6889 22.5943 15.9607
1 10.3344 30.4692 15.8271
1 27.3386 30.3759 7.93639
1 2.63641 19.3922 6.83589
1 4.34917 30.4038 28.5042
1 25.6889 28.5158 13.6204
1 14.4995 23.7249 14.8077
1 15.1673 2.28458 24.0464
1 7.90697 9.2532 9.85371
1 10.5826 3.52738 19.8488
1 14.6232 24.5464 28.9309
1 14.7447 24.7245 4.65544
1 10.7592 10.7539 28.3632
1 7.67312 20.8475 28.1233
1 4.34373 0.334303 24.6847
1 13.7083 26.6065 9.52653
1 14.3129 0.703445 28.9566