4096
Atoms. Timestep: 600
1 3.79208 2.54564 15.2305
1 26.851 14.4794 26.7227
1 3.38311 28.2609 17.0487
1 5.7623 4.9685 3.8786
1 23.7486 14.6793 6.80162
1 11.3858 18.5264 10.5757
1 12.349 2.59514 9.54316
1 27.745 26.0078 1.35763
1 17.4365 29.4355 23.2584
1 24.827 30.4386 11.2556
1 1.10734 11.3799 23.9011
1 6.54921 14.4442 29.6267
1 9.42727 27.7221 0.162119
1 3.73049 1.19455 19.9977
1 22.6106 7.58315 24.8725
1 14.8731 16.4401 13.3755
1 17.7451 5.63471 10.031
1 7.40058 19.3731 30.334
1 15.9003 10.8033 12.9294
1 9.55273 0.531022 10.1938
1 1.43748 7.40341 3.17105
1 16.7966 0.219977 9.65048
1 5.52293 14.0115 24.9697
1 24.8102 5.78328 14.0132
1 8.04491 1.46972 2.45934
1 30.3375 27.7899 3.82165
1 23.3919 8.13636 26.0095
1 20.7766 12.4826 8.52653
1 13.3987 22.7821 28.1374
1 10.608 28.7079 12.637
1 23.0095 8.63234 17.8369
1 29.4343 18.3032 8.1266
1 4.95797 2.79193 25.1062
1 0.774172 17.9732 17.3552
1 28.8117 15.1229 17.7652
1 27.5037 12.3585 12.9735
1 5.68733 21.0893 20.4576
1 21.8983 16.6358 7.20605
1 15.7837 18.6608 7.64909
1 17.5477 23.6542 17.1038
1 5.31717 11.1014 2.34117
1 14.8185 12.4584 27.2146
1 16.889 7.52347 15.0418
1 12.4625 7.08294 13.0653
1 20.2612 25.6091 29.1197
1 20.6219 5.48491 0.88866
1 7.82341 6.81625 6.6571
1 11.3516 15.9106 25.5689
1 14.2301 29.314 5.77944
1 25.37 18.0187 4.53094
1 17.2897 29.2729 9.50268
1 14.8078 20.1568 2.4364
1 19.9574 4.62155 6.49391
1 17.2311 7.39158 26.5295
1 29.9863 7.46835 21.3542
1 29.4768 10.6781 0.903576
1 27.3896 22.9829 25.8627
1 24.7753 26.3056 30.3032
1 3.58289 6.32035 9.72051
1 21.601 7.29779 30.471
1 7.93887 4.64128 4.13524
1 25.5955 10.3256 21.3553
1 26.0602 27.893 8.13953
1 6.1552 15.6139 18.6105
1 13.4028 24.0622 4.94868
1 3.59543 24.2731 29.2747
1 29.2372 21.4948 9.65686
1 20.9589 26.4424 25.4566
1 26.1397 13.4832 17.128
1 19.9989 21.9948 10.6038
1 28.3759 29.3563 11.9006
1 6.44871 23.8399 24.5372
1 0.57802 3.73354 9.46374
1 11.143 0.609426 28.727
1 12.4895 11.9201 4.04935
1 11.5541 11.2423 17.4376
1 23.5935 17.0979 23.5221
1 10.4689 6.10609 28.0893
1 19.3396 4.84293 21.3053
1 11.5075 10.5312 10.937
1 28.203 29.115 1.18742
1 23.1736 25.0584 16.5187
1 20.776 11.4059 27.4796
1 26.2701 15.3227 25.7571
1 9.04156 16.1955 6.03935
1 11.9683 0.0592455 12.1103
1 17.5556 6.21136 8.9519
1 27.4273 23.8395 4.37368
1 28.5297 29.8068 25.5174
1 15.0902 30.2878 25.9068
1 21.1112 18.649 15.432
1 1.24648 18.8247 11.3968
1 2.05418 2.89512 6.00057
1 21.3503 1.38841 21.5927
1 25.2444 4.07692 22.4989
1 6.48852 3.76531 20.7018
1 26.9676 29.1738 1.67839
1 28.1339 26.5878 14.1045
1 4.14111 4.7992 16.1851
1 21.3269 10.3717 17.6143
1 4.96892 25.8895 18.9848
1 28.9133 0.982519 8.31286
1 12.4026 4.65755 6.69818
1 28.1819 15.5637 5.05342
1 23.15 14.0751 29.8924
1 20.7761 19.6648 3.16701
1 26.3095 8.93116 27.337
1 21.0104 3.12296 7.7026
1 9.1455 13.8386 12.7628
1 7.86738 2.15352 10.4508
1 12.0748 25.1907 7.16228
1 9.72212 11.2011 0.456666
1 24.6161 7.88265 2.11792
1 8.5949 28.8121 30.0934
1 23.568 13.5255 22.1744
1 28.33 19.4899 13.6475
1 2.34723 19.9631 19.6877
1 24.534 19.1822 4.28396
1 23.9921 22.9777 1.63305
1 14.8319 9.26853 16.7071
1 23.08 12.4392 21.4981
1 21.8556 15.2533 22.6097
1 24.7225 9.34468 11.3544
1 7.09973 14.4478 8.43014
1 15.4297 14.7491 3.87023
1 18.8105 18.8606 4.21515
1 24.4864 19.2753 13.101
1 21.1447 18.5478 11.8695
1 30.2598 20.5778 9.6197
1 11.3489 6.96596 10.5673
1 12.7859 0.3168 22.1127
1 15.0123 13.8807 25.2122
1 6.13275 25.8717 19.7919
1 1.86299 1.10432 18.0937
1 20.5408 7.57699 13.9842
1 1.56145 2.71046 28.3632
1 2.37533 27.8872 5.72984
1 22.437 16.4466 17.1213
1 14.9426 9.89692 10.8056
1 23.9656 18.2375 19.6901
1 7.87031 15.3322 1.47804
1 3.94548 9.99965 17.4608
1 26.0027 5.18715 18.6782
1 29.9401 20.9512 23.4047
1 17.2114 11.6564 23.7566
1 19.7601 13.1724 29.0655
1 4.85792 1.41067 0.438719
1 2.81431 14.7506 14.2757
1 5.94396 9.37247 20.3803
1 7.62232 4.16452 17.0881
1 8.89337 20.0283 21.9247
1 4.0141 21.7718 22.8517
1 5.22253 4.14866 9.72395
1 28.4039 8.34602 11.8952
1 10.4683 25.3727 24.3172
1 4.4668 3.98745 22.2494
1 26.1485 19.2426 14.7492
1 0.623838 9.93187 10.1388
1 28.2386 6.91709 14.848
1 2.48535 22.8096 24.3725
1 23.4361 1.14501 26.2599
1 9.64023 14.0182 29.0094
1 1.73855 5.53567 18.608
1 5.77403 18.2136 6.15261
1 9.06126 4.37724 0.757188
1 2.00887 1.32924 30.1982
1 7.74518 2.69911 26.8844
1 11.2099 15.9546 21.7007
1 26.9609 3.99312 27.9835
1 12.2821 16.928 25.8484
1 18.9144 8.39328 2.65137
1 14.6859 6.8538 4.22683
1 13.774 29.3285 1.2515
1 30.0959 23.8528 27.699
1 2.23023 14.909 28.1074
1 8.32631 24.2596 16.1788
1 16.3021 18.4697 30.2184
1 6.21112 4.39114 27.2457
1 7.05659 5.81048 5.72352
1 21.1496 23.6279 20.4098
1 18.2557 24.4105 21.797
1 23.7233 24.6917 8.6618
1 8.90779 4.52557 27.0429
1 25.3781 25.9337 13.3018
1 15.6411 20.2152 24.0574
1 28.882 5.18305 26.3094
1 14.1069 10.5504 28.7413
1 7.54816 29.8335 20.4481
1 2.79882 30.0614 7.46984
1 10.6265 28.6164 11.0586
1 17.3249 23.3375 0.962483
1 11.0273 14.2162 3.06608
1 14.3082 24.7827 24.4216
1 29.8535 17.4699 23.2558
1 4.58078 21.3909 17.0557
1 23.2926 18.7026 13.3523
1 25.952 16.0222 7.2161
1 13.4912 27.1011 30.1479
1 12.966 12.1029 2.66359
1 17.0128 7.19446 13.1578
1 7.73496 21.2491 19.8946
1 19.225 -0.0732088 12.5497
1 3.01041 17.6895 19.8416
1 13.4304 8.13209 15.0444
1 26.0137 19.3415 19.716
1 5.22046 13.3281 17.9521
1 18.8412 1.73352 16.8694
1 14.4892 5.87324 2.44412
1 16.1148 8.3814 3.10592
1 5.54347 18.6178 28.6395
1 4.68372 14.5008 0.708929
1 14.4077 6.00619 25.784
1 22.4366 9.95093 6.56939
1 8.47459 29.8078 25.1012
1 16.8861 9.88959 15.3969
1 7.17391 3.71782 2.1303
1 5.60362 9.21137 28.1782
1 29.9674 5.05145 12.2413
1 9.87995 24.8633 12.4903
1 12.1176 3.8126 5.71037
1 8.54055 18.295 29.8386
1 16.987 2.59657 14.5005
1 29.6137 4.39083 0.580867
1 10.944 15.2541 5.1869
1 19.8558 19.999 21.5418
1 16.955 26.212 5.02917
1 23.8597 6.10871 4.27288
1 18.4899 9.48434 4.77615
1 21.0194 17.8185 1.42324
1 25.1676 3.43889 1.19637
1 3.38738 20.6678 25.584
1 11.3073 15.7236 23.0732
1 24.9592 9.85918 16.7503
1 11.3251 12.4525 27.5832
1 12.8993 2.66526 20.1264
1 20.6166 4.05492 23.3229
1 0.592679 14.8454 27.6893
1 22.9263 20.1787 11.3226
1 10.7307 1.44628 20.9959
1 17.2315 8.91016 22.2158
1 26.3148 20.7591 1.82936
1 27.8454 9.96976 28.6092
1 9.695 11.3999 8.60575
1 6.7927 8.19657 15.6814
1 18.3218 23.8333 7.75847
1 25.1916 28.7949 8.18831
1 19.2113 20.5197 18.7731
1 24.8636 10.4021 1.68906
1 3.32184 1.03688 9.1479
1 3.95286 2.8604 17.548
1 27.1499 29.6542 2.95308
1 6.25728 2.62496 18.6202
1 15.3218 15.0813 10.4855
1 22.9709 8.87354 28.1137
1 7.28174 1.05793 15.9228
1 28.435 16.0789 28.7384
1 5.21195 1.35707 27.1597
1 5.58063 27.5787 16.9471
1 22.1944 21.0403 10.356
1 5.1509 7.07711 5.36199
1 24.4378 4.3473 16.3724
1 16.6029 20.5144 14.0728
1 5.37389 11.2457 28.9091
1 5.926 23.6926 20.4283
1 1.63479 29.4305 1.57429
1 11.7277 2.27625 23.1025
1 12.9119 22.5076 2.28675
1 7.28018 8.61234 9.98614
1 30.7633 14.1457 12.4077
1 15.8683 30.0215 28.8719
1 4.5781 23.5891 14.2817
1 29.2129 25.8215 10.6201
1 11.7047 9.524 0.281635
1 8.79343 24.2518 20.7415
1 23.1031 28.7733 27.2537
1 12.6461 7.09297 20.005
1 20.6166 15.7588 14.1082
1 17.1796 29.235 4.00273
1 20.3927 5.76057 7.02696
1 14.8854 23.672 26.4977
1 6.53743 3.75486 15.0118
1 1.17583 19.144 -0.0443424
1 21.5171 27.6554 0.858039
1 24.6393 23.5166 26.4571
1 6.11758 9.0602 3.86927
1 9.14313 15.3525 7.2109
1 20.0684 2.13883 21.566
1 24.9789 13.9871 26.7562
1 8.83865 4.61621 7.7503
1 28.1181 23.3411 19.8399
1 8.91482 23.1683 1.47391
1 18.1799 17.6087 10.3135
1 15.9425 15.1719 30.4087
1 8.55952 11.6023 4.82926
1 24.2037 18.7876 23.6619
1 12.1344 8.16421 12.6483
1 5.08108 11.8954 5.19606
1 23.4045 26.4026 30.0099
1 23.3996 20.9707 14.9205
1 29.4825 24.0418 17.8356
1 15.1909 5.58951 15.1035
1 18.8818 4.44062 4.2656
1 16.1167 10.9634 1.21404
1 16.3911 9.04263 7.90385
1 25.0229 18.8661 26.3274
1 23.8113 23.8995 13.0974
1 12.9968 18.5315 12.5766
1 4.92748 3.37087 23.4127
1 13.0089 16.2729 27.89
1 18.5139 16.1412 5.52364
1 23.6969 19.7075 16.466
1 4.47919 25.8482 10.1622
1 22.3401 28.6305 24.6241
1 4.10576 19.2919 14.7298
1 15.0751 11.0946 11.7314
1 27.9649 29.8435 5.28908
1 21.9353 6.2333 22.1724
1 29.5712 8.12707 2.55022
1 13.6186 7.36703 22.0866
1 21.9619 23.6617 4.03798
1 10.4209 2.43134 11.3337
1 27.9966 14.1839 8.04863
1 23.1462 17.0182 2.66448
1 11.5876 26.6875 26.8294
1 0.84264 28.7981 15.787
1 7.56329 1.14144 5.39432
1 30.2473 24.8189 13.3657
1 12.4864 2.41619 12.6029
1 5.1293 1.59951 2.55357
1 2.40543 18.368 23.5868
1 12.4768 6.96677 2.69842
1 25.044 -0.139525 2.31921
1 24.5962 14.7717 30.1904
1 27.0492 30.3952 14.1407
1 26.9282 26.2784 21.1861
1 15.2515 19.937 16.0524
1 17.5481 25.6044 25.7587
1 19.7719 23.4217 19.7525
1 27.1032 12.4541 2.14011
1 10.5555 9.17881 16.8282
1 22.7099 10.2993 1.43861
1 4.67624 24.2242 22.3219
1 29.7083 7.82586 7.13794
1 14.4092 11.8259 9.05822
1 10.7527 13.5091 21.8767
1 20.4172 9.08736 28.254
1 17.7048 7.7374 17.3026
1 6.57086 4.82945 8.85176
1 24.9396 4.15479 28.8888
1 25.3674 23.892 22.448
1 20.5988 5.11357 19.2527
1 15.31 23.8502 15.8481
1 22.7408 20.5576 4.90516
1 30.507 15.1487 14.4122
1 10.1841 3.57058 28.9447
1 16.5941 5.63474 8.06784
1 7.00814 24.8854 22.4187
1 13.4899 22.4439 25.7242
1 29.0123 6.84406 19.1127
1 20.7321 29.253 20.4273
1 28.1264 25.6993 23.2569
1 22.0557 7.61706 13.9351
1 9.84999 4.5031 10.0252
1 8.63964 14.3012 26.7416
1 29.2998 5.16307 24.9368
1 22.3555 6.32121 6.8404
1 29.1418 17.5138 30.5276
1 9.02133 21.5172 11.9079
1 27.024 5.42293 19.5292
1 19.6969 24.6077 2.52356
1 11.273 18.2344 5.82812
1 20.7649 15.958 25.5828
1 25.3877 27.6325 0.0663051
1 16.1476 17.2681 23.0863
1 0.33402 16.4625 11.166
1 29.2592 8.94579 6.5932
1 3.52823 13.1559 21.2746
1 23.678 10.3548 3.70977
1 29.9556 6.86662 27.7226
1 7.74753 20.4463 13.6876
1 6.13562 28.6563 26.9748
1 23.3091 30.6083 29.5685
1 26.0831 17.1623 23.3683
1 29.443 3.84404 9.83362
1 20.2178 18.7033 17.5152
1 20.5959 14.5077 29.8079
1 25.0754 10.3589 10.3761
1 19.5566 11.3579 0.831125
1 24.2103 19.0192 22.0812
1 4.70878 23.1557 16.2297
1 3.39677 18.6435 4.45694
1 26.4624 21.3038 4.71585
1 0.820139 23.3248 29.4194
1 27.7483 29.7762 17.8827
1 3.07879 4.89206 27.3531
1 0.917274 7.94663 28.9698
1 24.1106 18.4357 15.9831
1 22.6726 15.8989 18.2636
1 19.7638 29.4747 0.585487
1 3.62119 11.8575 16.1139
1 26.0354 11.885 2.86701
1 29.4252 0.215898 3.49139
1 8.93578 13.3844 -0.0367155
1 5.37307 21.1194 29.3418
1 2.94663 9.54122 7.70104
1 6.5599 15.9985 25.6091
1 22.6779 27.4066 4.89082
1 16.0883 5.78089 24.4219
1 5.28815 11.4358 19.3779
1 13.342 6.63999 8.61827
1 2.69412 18.4525 1.8817
1 10.59 13.4935 9.03408
1 19.431 16.4897 24.9994
1 25.7743 24.3943 10.3797
1 24.4767 9.25519 18.054
1 0.336792 29.3915 0.888402
1 21.9453 23.9555 28.1234
1 22.5132 25.4724 20.3094
1 16.3306 9.02561 14.5292
1 16.4372 5.15704 14.1899
1 27.4646 2.50066 21.1233
1 15.5756 24.9626 12.2193
1 24.622 15.5698 7.51821
1 9.76804 22.9634 25.7703
1 8.65973 16.3148 15.2145
1 20.6999 11.8819 1.4821
1 27.931 24.2837 23.5986
1 3.04673 11.8177 10.7225
1 5.71552 27.4257 29.2434
1 17.963 9.13809 15.8472
1 25.6418 21.3417 5.77217
1 10.2992 3.48626 14.8793
1 6.30059 7.00398 15.1054
1 22.0921 24.2069 22.7722
1 12.4587 27.616 26.3234
1 16.48 18.7528 25.8382
1 25.5434 2.91301 3.72254
1 23.8323 13.4152 17.9717
1 4.77984 11.443 12.7227
1 7.21303 21.3947 23.958
1 0.993396 26.8619 17.0544
1 14.2639 19.4331 10.7192
1 14.5212 24.0225 13.9681
1 6.78341 15.8518 13.5684
1 17.0616 17.1018 11.3491
1 8.25156 24.9182 5.72402
1 6.01608 2.02405 24.3204
1 13.5697 30.5344 18.4453
1 17.8728 4.27314 21.4735
1 29.8046 27.0664 1.55704
1 18.8208 18.4932 26.6192
1 21.5761 23.4536 17.9033
1 21.987 4.1788 8.15404
1 25.315 1.19286 5.92279
1 6.27298 6.08046 21.9696
1 23.4194 22.6304 21.3583
1 23.8484 17.0283 1.16008
1 18.997 0.260658 21.9202
1 17.2647 10.3013 19.4591
1 18.2061 15.1509 0.520402
1 8.7857 19.7926 24.9984
1 23.3227 30.3271 20.4445
1 11.8312 14.4255 10.621
1 5.80146 21.2205 2.32964
1 13.1277 17.5273 9.2527
1 2.1122 4.40923 7.7995
1 17.4302 3.33124 27.9416
1 25.6751 15.7029 23.5535
1 1.98496 8.35333 25.6463
1 6.66845 28.6364 0.847536
1 0.593085 20.4189 5.95281
1 13.8858 26.3777 20.7567
1 26.9062 2.68983 18.6227
1 24.6433 6.80648 24.1718
1 23.4543 15.855 20.6226
1 6.90934 12.0014 15.6809
1 13.387 30.0232 16
1 27.6112 27.4593 28.0559
1 14.2188 3.87286 11.893
1 6.54844 13.6513 19.9442
1 7.89628 23.6895 24.1621
1 8.88394 0.978347 30.0962
1 9.74545 5.06624 8.66904
1 1.6029 16.5021 22.1854
1 19.2204 30.1553 27.9419
1 13.9061 6.89427 26.7588
1 3.08933 5.60099 0.434703
1 7.33186 25.8594 13.1389
1 2.17506 29.3123 9.84905
1 10.1803 12.2137 2.67498
1 29.0264 0.803196 19.2176
1 8.23039 25.0032 23.268
1 7.62839 10.9248 11.3041
1 19.3937 23.1835 10.1832
1 7.32957 12.4218 22.2366
1 6.02989 18.6719 12.3199
1 2.87665 26.6083 6.82056
1 2.63541 11.4534 2.40759
1 14.5893 16.0918 29.9182
1 5.6968 16.6903 29.9786
1 28.9122 3.49189 1.42234
1 6.91209 26.7009 29.5905
1 19.5835 20.4396 29.7792
1 7.80778 7.75756 23.5329
1 26.629 4.68099 12.4123
1 23.7617 28.9081 19.998
1 12.6867 11.1329 7.69095
1 19.199 7.36617 28.4452
1 16.5472 18.1408 1.29375
1 18.1193 18.1582 13.4273
1 22.6287 8.08893 15.2743
1 27.3818 9.25671 24.3303
1 16.5671 28.2705 16.1001
1 7.20941 5.52072 16.762
1 11.9146 28.3759 4.8224
1 4.71824 7.71521 18.5472
1 21.9879 8.67147 3.10294
1 3.52476 28.0613 2.65968
1 18.6294 3.31485 12.226
1 21.1385 3.54189 16.1212
1 10.7189 11.6006 6.15655
1 3.44609 24.6805 22.7769
1 16.288 10.5493 8.31283
1 1.82283 13.1495 19.0502
1 6.47675 29.412 10.1281
1 4.8345 19.9243 10.299
1 3.83818 8.50194 23.4329
1 28.9492 15.2654 14.1766
1 8.99608 25.7644 14.3952
1 24.9241 5.8769 18.3956
1 7.59329 10.3543 17.5626
1 16.2622 4.71986 26.4141
1 3.74856 4.94035 3.59004
1 8.55409 16.5697 1.38914
1 7.8372 22.2347 1.60375
1 10.2764 3.14037 4.57197
1 30.3317 5.44183 1.66357
1 15.6098 0.741259 1.40884
1 10.8712 26.6606 19.8748
1 7.70322 5.33412 11.7816
1 4.82659 8.73685 3.37232
1 5.68721 26.9487 1.89164
1 26.5064 7.79669 29.6714
1 13.5636 8.02815 25.9051
1 17.3092 17.8141 20.7215
1 13.1333 6.97368 14.5354
1 1.61563 27.7739 28.556
1 20.5855 13.8873 8.61233
1 14.7086 16.4774 2.0263
1 28.1631 12.5944 18.4903
1 6.96576 25.7144 9.72307
1 16.947 29.8915 7.26238
1 11.056 21.8229 13.1766
1 1.37086 24.7244 18.4616
1 0.444469 20.2415 15.8104
1 3.95635 21.7933 14.7219
1 3.19474 9.27701 30.625
1 29.9507 1.05243 29.7712
1 12.8209 14.9641 11.6418
1 20.1848 20.3096 25.697
1 29.679 29.3749 11.9671
1 2.50432 17.2105 10.3479
1 3.22301 10.8833 21.8139
1 26.0764 25.4813 2.91852
1 11.8332 14.0654 8.66563
1 1.83143 20.2531 22.0631
1 9.2336 1.18266 3.03586
1 8.56306 1.69014 22.6064
1 9.54891 2.5103 14.2047
1 6.79287 15.5371 9.36473
1 3.93247 4.09546 13.171
1 12.0569 20.1891 18.1038
1 13.8011 3.60744 23.4084
1 25.5952 13.5091 19.6987
1 1.26596 28.8215 13.3411
1 14.9161 27.1061 21.5899
1 8.49199 7.46429 0.799011
1 25.4449 3.03143 12.2294
1 19.5176 13.3325 23.7292
1 18.642 26.8729 13.3494
1 19.8956 23.6986 12.7497
1 12.2179 30.1222 26.1525
1 5.49097 5.27713 10.6288
1 16.5179 28.9683 29.4227
1 16.5991 13.1447 1.15379
1 29.163 25.8648 29.5897
1 28.195 30.4717 26.6386
1 17.8124 27.4449 14.4547
1 17.0811 4.10763 14.9918
1 27.1404 7.46476 21.6106
1 12.6771 17.6142 17.196
1 0.470216 1.00661 16.1935
1 29.6642 25.5203 19.9754
1 13.4186 25.7323 5.05572
1 28.2861 29.4799 3.83891
1 19.9974 2.47924 4.56612
1 25.3569 11.4631 4.15504
1 27.4259 4.55486 26.4476
1 30.2066 6.5616 6.15347
1 28.3288 5.20098 30.2129
1 19.8146 2.13282 6.06605
1 8.05949 17.7657 5.85716
1 0.66163 10.5278 8.82542
1 21.8816 2.2464 14.2143
1 8.68878 18.6327 22.1917
1 11.3397 6.73267 9.12263
1 19.6456 24.4958 22.151
1 13.7196 15.6994 23.749
1 8.16462 21.8831 14.0922
1 14.4379 15.197 28.6334
1 26.4892 15.7039 28.963
1 29.3056 19.8854 15.5683
1 15.6314 11.376 24.3937
1 19.4152 18.8108 27.8844
1 2.8525 9.79312 15.4182
1 10.7585 9.58228 24.5805
1 16.1798 0.71176 10.8449
1 27.9808 13.107 10.5169
1 10.4108 6.91195 15.8987
1 21.7666 6.16991 3.26416
1 14.9804 8.71513 11.3098
1 26.057 30.343 22.5404
1 10.2652 8.26581 22.6791
1 8.20864 19.6339 2.29103
1 0.892981 20.053 25.9111
1 0.743375 23.7257 12.2756
1 20.5279 12.6046 23.4352
1 29.5451 8.81433 21.3592
1 15.4013 20.0742 26.6169
1 8.1833 6.44722 23.2363
1 18.0301 28.9951 29.1733
1 10.219 5.37604 5.87516
1 2.98328 26.2394 10.2315
1 25.1407 15.1487 2.92472
1 21.7789 9.15253 18.1209
1 9.02328 0.707605 18.2054
1 4.53968 24.3556 4.47549
1 0.540905 10.3269 1.61134
1 5.24622 29.3327 7.89638
1 25.7908 2.87542 28.0472
1 2.8492 23.756 6.23471
1 23.806 11.0001 27.8182
1 17.3313 19.9244 22.2213
1 7.66212 27.2799 2.64624
1 14.3777 4.94511 23.2459
1 12.1715 7.03967 4.94241
1 10.5465 8.50218 25.403
1 9.71092 4.3463 24.7435
1 23.6286 3.89058 5.18181
1 15.2318 12.6134 6.52984
1 13.0395 22.645 23.089
1 18.4624 20.0666 30.431
1 9.24524 11.0595 3.60106
1 6.23854 4.90407 11.9229
1 29.9287 9.103 27.2217
1 10.1574 21.5788 17.6825
1 16.6649 20.9246 1.23165
1 13.4648 17.2455 7.94255
1 6.70854 13.7579 28.5607
1 11.3902 4.63636 10.678
1 4.50452 21.9141 25.8496
1 5.95452 5.5404 13.1162
1 30.3951 26.5425 19.1493
1 1.57857 23.1955 14.3627
1 28.4865 11.8976 14.9528
1 15.3463 6.87649 25.0026
1 12.6682 25.3146 1.9975
1 21.0444 27.4775 10.1429
1 17.2246 15.7707 30.0695
1 16.3166 12.1433 1.9301
1 4.54925 11.513 27.5959
1 9.95896 8.57307 21.3725
1 28.4558 24.6168 10.0621
1 11.312 17.1258 11.0476
1 13.2954 9.63026 3.47075
1 6.04868 10.9712 4.82116
1 0.598368 18.1033 14.6623
1 6.37853 13.5251 10.3547
1 25.9046 22.3465 13.0728
1 29.2314 19.7324 19.711
1 18.3841 13.8167 3.16725
1 21.4515 9.85814 5.60168
1 7.02052 28.8159 18.2346
1 25.4366 0.590783 27.674
1 15.3775 16.4119 9.766
1 17.0663 13.9681 5.09289
1 3.45905 1.93379 23.4259
1 15.6374 12.0847 3.21407
1 11.9407 2.22375 0.422316
1 1.44399 10.6677 6.58061
1 16.2644 14.5424 7.62317
1 23.4911 7.79192 2.92119
1 9.09408 25.9669 10.6559
1 17.1527 26.3271 10.9844
1 13.8541 5.55864 17.0926
1 18.5463 29.2582 12.9429
1 7.91718 23.3555 13.9847
1 30.3892 12.9498 11.5661
1 21.3664 1.82973 26.8563
1 17.9348 24.4336 11.9253
1 3.27068 16.1596 1.939
1 27.5976 0.927148 13.1618
1 28.0662 21.473 29.6197
1 6.08569 28.0422 6.06397
1 3.41705 28.3887 11.519
1 10.0383 26.2152 22.7923
1 23.7501 8.71599 21.1178
1 27.6809 13.7935 5.65483
1 7.50984 10.6792 6.79813
1 20.8921 15.3709 5.00084
1 9.64632 6.17308 21.2048
1 10.7279 15.5095 24.3937
1 4.98564 11.954 18.1563
1 18.9121 27.685 10.8466
1 12.4019 10.0566 19.9589
1 15.1043 5.45144 1.063
1 15.4196 4.4603 11.7597
1 15.2818 17.5147 29.5141
1 5.4006 9.81174 29.2744
1 7.11105 3.6804 6.46079
1 2.82623 22.41 22.9449
1 19.8425 3.62508 14.3125
1 5.29473 15.9548 2.92846
1 20.8009 3.84929 2.73325
1 5.78662 21.3539 24.0708
1 11.5449 0.58329 2.28738
1 13.3365 12.7395 25.8278
1 11.8602 13.8982 16.5964
1 2.81356 6.34116 7.61873
1 8.88799 25.8651 12.9935
1 14.1243 15.6606 11.124
1 25.1838 1.36594 21.6553
1 12.581 30.2089 7.54664
1 9.1594 5.68609 22.5898
1 16.0579 17.477 15.338
1 12.6214 23.2309 29.1693
1 5.04151 8.74658 7.03352
1 5.70805 25.0607 24.3027
1 4.66255 22.1409 27.3544
1 9.20746 10.1519 19.6865
1 27.1592 8.10789 2.82836
1 20.6828 4.74203 13.4715
1 16.2299 23.9 17.201
1 3.28239 23.9424 20.3223
1 3.2762 22.2662 1.12146
1 6.6137 14.5365 14.3627
1 29.271 10.0966 10.5359
1 0.237697 23.7568 25.3643
1 0.710023 3.88927 26.2352
1 11.6048 27.4873 24.7737
1 6.21475 26.6663 21.0173
1 18.1973 26.7934 9.83726
1 19.644 5.76444 20.271
1 20.6152 6.59547 22.8205
1 27.6363 8.63294 6.01451
1 18.8518 28.5538 6.00668
1 19.6905 3.11395 9.02873
1 14.6844 22.6965 13.1923
1 10.8004 27.2901 18.5959
1 20.2942 14.135 1.97238
1 28.4667 0.358572 24.3563
1 12.2729 18.7471 9.20758
1 11.2095 6.01323 26.995
1 12.6035 28.4168 14.0419
1 15.0307 13.0978 3.97926
1 25.7201 2.25433 15.6828
1 14.5767 19.2408 6.96162
1 7.51339 9.01453 5.27228
1 8.51992 5.27433 19.029
1 3.51914 0.565083 12.0184
1 26.8651 24.9874 0.766818
1 15.4241 15.1953 15.3293
1 7.71833 13.0765 16.017
1 5.2616 13.1068 4.2747
1 21.0347 1.3262 4.57603
1 25.0119 28.8904 11.1021
1 9.22781 18.7653 6.54031
1 7.8321 8.34473 24.7152
1 4.33691 22.197 9.19166
1 24.6551 8.82622 8.59137
1 12.9063 17.9476 25.1184
1 10.2434 17.8658 6.98223
1 16.738 12.9429 13.1654
1 3.59544 7.04726 15.1575
1 19.5614 21.9668 27.2393
1 1.66473 26.348 2.70166
1 24.3026 28.4503 12.1964
1 12.6084 7.85662 28.9169
1 1.06641 27.3196 15.6728
1 12.9324 27.2789 13.1857
1 16.4075 28.9826 19.9252
1 3.11408 10.6694 27.5548
1 28.0906 22.014 17.6064
1 18.946 15.4039 28.3605
1 23.8732 28.6058 3.13483
1 6.81621 29.7135 21.4525
1 9.79059 22.37 12.5266
1 1.7845 12.5401 24.4413
1 28.9308 17.5612 18.3707
1 2.18118 11.9913 19.7488
1 12.0737 7.99971 18.8664
1 2.78203 11.1248 15.2351
1 13.8031 28.6945 19.8433
1 16.4205 25.4006 21.1668
1 28.1116 9.4208 21.1138
1 16.3509 6.61632 22.3268
1 5.86116 20.2959 15.6083
1 8.4577 14.1585 24.4271
1 18.5394 3.54487 8.14376
1 24.2751 24.8153 21.9064
1 28.8501 6.61647 26.8304
1 26.4379 20.209 17.3995
1 4.41384 21.8402 18.3967
1 11.3628 17.2971 1.91203
1 25.5994 17.996 28.6985
1 30.0641 11.2556 16.7628
1 10.9467 29.6407 26.6385
1 23.9117 0.875999 2.47505
1 20.0048 28.0329 28.8621
1 25.1908 25.9343 6.60466
1 8.80139 27.9778 2.78557
1 16.6925 2.54098 2.12128
1 8.13961 21.3932 5.14708
1 14.0558 1.28838 6.54533
1 9.10944 8.77216 4.85167
1 30.1431 1.8364 11.1872
1 6.6964 13.1363 4.40899
1 12.8269 19.1559 15.467
1 23.8306 16.5901 28.127
1 6.2548 20.2762 25.5069
1 19.2521 10.2778 19.2626
1 0.765276 22.5736 22.0506
1 19.5574 9.80466 13.4875
1 15.3039 18.1667 22.1344
1 3.85266 29.4137 4.59127
1 12.4728 3.78024 23.3817
1 10.3727 25.8768 16.5746
1 3.05527 29.7385 11.9482
1 20.6207 14.6915 19.4223
1 15.592 4.17566 28.9586
1 -0.0298689 3.8606 6.27947
1 12.2166 6.4724 1.46938
1 7.06509 10.6535 16.1043
1 18.7189 27.8626 28.3805
1 30.0112 13.808 27.5814
1 9.46372 1.23663 14.5303
1 9.01115 4.44076 12.6233
1 1.44778 2.62317 2.10246
1 27.0197 14.7475 1.34819
1 23.8591 25.669 24.6726
1 5.27548 2.3072 1.52305
1 19.5516 24.1742 18.7123
1 22.3529 13.367 3.60207
1 11.2606 23.7206 21.5645
1 1.0158 11.8607 6.74311
1 12.1438 27.2063 6.21228
1 4.80091 4.91348 18.5257
1 -0.172863 0.482974 8.1177
1 25.9445 8.23947 0.467097
1 8.16337 6.60994 11.673
1 20.0434 6.81773 27.4942
1 17.8161 21.0967 19.3808
1 8.93803 9.43503 13.5081
1 15.0027 23.637 24.6129
1 12.899 18.698 2.11453
1 15.761 10.1771 5.93475
1 5.12332 12.2183 0.64962
1 0.91443 4.32452 15.6523
1 6.82872 25.622 30.4846
1 25.8512 18.8055 13.109
1 26.5249 3.2928 13.3975
1 25.6231 13.8071 27.9277
1 3.03748 16.0601 9.52426
1 26.2469 17.5143 16.7065
1 8.36923 15.9378 29.6345
1 24.8017 23.6185 18.2089
1 4.39864 17.0806 12.7867
1 1.78089 6.99969 1.96004
1 22.1219 7.79293 6.02704
1 2.70286 22.5296 20.3087
1 24.8873 15.7805 26.2602
1 29.2458 4.53652 17.9606
1 8.05051 24.9486 10.043
1 27.0801 6.04562 21.9354
1 8.97328 17.3131 10.0322
1 6.91553 30.2132 12.3052
1 9.77573 27.0589 29.2369
1 3.35448 14.6556 25.6402
1 8.46096 0.435084 13.9938
1 8.49198 28.095 5.36765
1 6.28411 12.3061 20.0408
1 27.6757 2.75577 22.3742
1 2.53104 16.799 23.3677
1 5.86656 16.3288 24.3858
1 30.3246 7.70253 1.35531
1 21.3753 16.9569 20.4499
1 17.3211 6.32014 3.9597
1 13.9426 7.27171 24.4446
1 12.5726 21.8674 20.7072
1 11.3212 17.6913 26.8408
1 27.2662 26.5185 27.1692
1 1.20087 29.712 4.45992
1 25.3517 15.0259 24.67
1 9.20399 20.4996 17.2869
1 19.8586 10.5643 7.91432
1 1.97584 28.0372 17.9339
1 6.8073 1.60555 27.2554
1 10.8932 9.33782 29.4501
1 10.3407 22.4793 19.1156
1 1.20241 4.95634 16.837
1 5.2868 18.1238 14.9324
1 4.41565 15.6993 9.84442
1 30.1225 8.19544 28.1177
1 16.6022 4.97017 4.03418
1 0.402041 12.988 22.3435
1 7.00837 27.619 26.8032
1 2.24344 8.95346 14.5559
1 5.36475 13.347 1.70465
1 24.2765 2.89518 29.3074
1 30.0217 22.7612 11.7247
1 21.6322 12.6022 25.4675
1 16.2197 11.4957 22.1455
1 12.7235 25.2974 22.8306
1 22.3409 16.7701 21.2641
1 11.6853 28.4804 15.1855
1 2.24178 17.8133 5.39649
1 4.88149 4.68007 8.45841
1 20.4652 2.61873 24.3671
1 0.44221 1.31725 23.6593
1 10.6093 1.26532 5.92512
1 13.5535 28.7546 30.3139
1 9.75482 19.3703 11.9075
1 28.5795 28.555 18.6145
1 17.6239 30.6357 5.85291
1 14.819 5.20389 28.111
1 16.2469 15.9597 22.0533
1 3.4459 14.2444 20.4877
1 5.16118 2.94493 13.0979
1 10.3312 22.7195 10.2452
1 18.1065 28.7559 16.021
1 22.6471 5.60417 23.119
1 3.73504 0.424507 1.3243
1 28.3126 3.30128 4.81726
1 20.1289 14.5091 7.1685
1 23.6579 15.9288 19.3168
1 0.445705 5.88681 13.2843
1 11.0955 21.5536 27.0295
1 29.8268 22.8363 3.87983
1 5.70726 7.91938 6.2579
1 10.0959 0.484916 23.032
1 4.55842 23.8469 28.3534
1 19.526 13.352 2.78933
1 15.8342 1.76303 23.8077
1 8.53861 12.3966 8.41413
1 8.33287 19.072 9.78504
1 3.66584 28.0845 4.98397
1 1.57805 13.0749 6.50607
1 26.1611 22.4098 26.4553
1 26.3684 8.15461 22.4547
1 28.5719 22.5587 22.1592
1 11.0975 4.48408 18.1796
1 7.39073 13.762 22.0566
1 8.6893 30.103 0.470326
1 6.42268 23.4446 19.2017
1 9.48015 7.43388 20.7394
1 27.9693 4.35683 28.9797
1 10.6947 11.4783 1.33816
1 14.9978 22.6682 1.63692
1 0.913309 18.9702 12.7455
1 22.0428 21.1786 14.9547
1 23.0561 8.6191 6.58296
1 12.0989 17.49 13.3072
1 21.7683 18.7157 0.402315
1 10.1242 29.2676 8.53376
1 6.53242 26.3366 17.1597
1 6.63501 23.725 12.0424
1 4.10207 18.0438 20.7955
1 16.9149 20.1304 19.7251
1 26.4063 10.9912 10.924
1 25.1904 12.3044 29.6526
1 19.8558 21.9548 16.7451
1 18.041 14.1125 25.3984
1 27.8597 7.6052 29.0943
1 22.2484 21.069 27.652
1 11.6589 29.4795 13.2248
1 27.0845 10.0212 0.543594
1 15.5914 20.881 20.3858
1 13.2397 25.0241 9.36265
1 19.2874 22.4074 15.7127
1 1.89514 15.9806 17.76
1 4.95821 15.8711 4.55396
1 5.81421 24.469 1.74267
1 13.3252 13.2279 27.273
1 2.30238 19.7857 16.592
1 9.34924 10.6576 28.1907
1 16.078 18.7479 15.985
1 24.7023 7.72539 25.8904
1 18.9777 10.1138 15.9978
1 6.98488 0.968051 17.2873
1 25.6294 25.5411 29.2791
1 22.3997 22.714 1.01185
1 26.1373 21.0734 26.9746
1 7.66375 2.29195 12.6878
1 21.7018 21.3065 18.852
1 10.6567 14.7061 21.1787
1 30.1961 0.717221 1.06764
1 13.4648 19.9613 30.6261
1 30.1018 14.7675 20.909
1 19.5363 0.933007 15.9328
1 14.1352 22.7833 2.79775
1 4.30043 24.8891 25.1466
1 26.0317 0.262167 24.134
1 18.1288 1.1016 4.15893
1 20.5272 17.278 29.8576
1 4.98711 19.3219 6.81957
1 20.6816 30.1163 27.7012
1 16.9844 6.19536 6.66644
1 15.7633 18.703 24.6279
1 7.99268 10.9448 2.98479
1 18.1336 12.0421 16.7207
1 24.5006 11.5504 19.015
1 21.4045 12.441 3.72792
1 5.90066 21.2454 27.8464
1 22.9636 4.31207 14.161
1 27.7042 20.4887 27.1694
1 9.09484 23.5955 2.75761
1 16.1232 0.743583 18.7555
1 6.7244 17.9095 19.2231
1 16.5456 0.157039 15.3493
1 18.8294 25.4951 9.60164
1 3.84316 3.56061 16.4402
1 21.2816 21.5117 12.5621
1 10.3406 28.219 14.8047
1 10.7667 10.9936 22.8924
1 11.6589 10.1329 1.68847
1 8.96258 7.06197 27.5186
1 21.4783 1.3783 12.9901
1 7.28009 27.6048 5.04568
1 3.04513 3.45541 14.2074
1 21.0598 5.09531 26.0859
1 26.2123 19.7523 10.6147
1 3.06098 7.45221 6.34594
1 6.10481 6.86045 27.9553
1 18.4336 14.982 12.9765
1 14.0088 13.2614 24.464
1 4.25099 26.8587 23.7974
1 16.6641 20.0896 28.792
1 17.1634 1.9156 7.9472
1 20.4569 8.58326 8.80113
1 11.6228 12.6697 11.1864
1 3.72697 11.826 5.92892
1 19.7224 22.6971 25.9253
1 28.7159 0.24223 6.02648
1 15.5588 17.6969 20.7237
1 23.8069 28.2938 4.47127
1 0.529148 21.2715 16.6141
1 5.35324 3.46451 4.77142
1 4.03629 23.4417 1.86811
1 26.3217 2.35795 23.448
1 2.88541 25.5706 27.4098
1 30.4644 9.60413 22.0536
1 24.4495 23.7123 29.8985
1 9.88885 12.8646 6.0896
1 4.31759 29.4524 23.7159
1 10.3705 4.62053 2.70795
1 3.51262 19.744 16.0616
1 26.4004 23.1436 2.12627
1 3.2196 29.1864 14.3975
1 10.4799 18.5813 19.0369
1 30.3084 16.1169 27.2385
1 21.217 23.6899 2.71253
1 3.23966 6.20627 4.27714
1 2.6695 27.7274 29.2772
1 6.92449 16.2712 19.5114
1 23.8697 22.4169 11.5505
1 9.57204 24.1614 18.1396
1 25.1906 8.04219 28.3267
1 3.9276 1.09978 15.3247
1 29.5381 19.4058 28.654
1 16.2101 25.5361 1.74689
1 11.9534 20.0631 15.1397
1 12.0922 13.4315 17.9472
1 9.95436 20.164 8.46496
1 23.1014 19.0763 26.209
1 25.5644 9.57371 22.5396
1 9.95396 23.8606 21.7169
1 27.9738 22.0221 7.55732
1 16.5634 14.7345 23.8172
1 22.3896 1.80819 18.7856
1 19.121 22.9967 6.39561
1 0.815125 9.9132 29.0997
1 12.2536 6.53113 6.4288
1 4.74844 16.8203 25.5672
1 16.2722 21.0547 10.1377
1 29.1623 0.871044 27.4844
1 4.95063 26.8659 12.6381
1 11.4041 13.1957 15.5346
1 11.0596 18.5603 30.2485
1 5.5569 16.1729 9.66077
1 19.7699 13.7738 15.2316
1 3.41597 15.9526 6.8454
1 16.1079 13.258 11.9384
1 9.33155 27.018 8.78615
1 24.2288 6.38723 30.4279
1 29.6858 16.928 19.517
1 21.6637 21.6291 1.42214
1 27.7167 12.7578 28.8314
1 23.2514 15.5676 25.9507
1 3.88524 27.4933 21.4156
1 15.9195 27.6196 12.9287
1 19.0237 25.2994 5.58713
1 18.7504 14.036 21.2398
1 13.5804 24.2254 20.7068
1 11.292 24.6598 13.0555
1 12.9701 25.2179 25.1766
1 23.634 16.4556 14.9577
1 12.2236 17.9699 21.5752
1 28.1649 19.934 12.2742
1 21.6909 11.9206 9.40686
1 22.9474 20.1871 25.4229
1 1.17568 26.8534 11.4215
1 15.7736 6.97305 15.9263
1 17.2927 7.89089 2.26913
1 21.6429 21.9201 29.0339
1 24.3709 0.853345 20.665
1 25.8193 21.487 8.96351
1 19.5191 7.51136 10.3124
1 11.8875 15.3497 16.4687
1 4.54461 15.1718 29.016
1 7.9124 22.0156 6.24663
1 5.11513 6.56415 12.9925
1 25.8778 10.3515 13.0967
1 27.1406 21.2266 17.0082
1 7.84891 1.62125 7.46921
1 11.1718 3.0645 15.7782
1 18.1828 24.2154 5.44455
1 27.5271 29.1154 16.3069
1 20.8144 11.4049 14.5834
1 2.67665 4.93634 6.45879
1 6.34209 0.545639 30.0633
1 20.1778 7.81009 4.35503
1 24.8348 28.7908 2.30863
1 29.7579 6.08868 9.07507
1 29.9916 29.9141 19.398
1 13.3859 30.022 19.8188
1 30.0132 18.4752 2.64696
1 10.8988 23.8345 26.354
1 27.3911 28.5711 12.4482
1 28.8161 13.4675 19.2737
1 21.2164 24.1716 5.23373
1 22.0512 2.61209 24.575
1 23.1135 26.8468 20.8182
1 3.08979 19.4352 5.48302
1 12.376 5.71275 20.1878
1 11.1819 21.1402 29.5839
1 10.8903 2.81239 18.7234
1 9.53326 1.09727 19.9716
1 22.4904 7.52395 27.2678
1 7.30286 20.372 15.7466
1 27.5695 21.359 21.7099
1 7.78985 11.8083 23.355
1 3.06359 16.5099 5.47538
1 18.5982 2.62199 2.11662
1 15.7575 2.73343 13.8461