4096
Atoms. Timestep: 680
1 15.1255 9.34891 11.7716
1 21.9344 28.7856 22.8605
1 16.1426 6.29407 1.78661
1 18.3327 12.6122 27.7765
1 0.710345 20.8216 3.85544
1 14.2348 19.9547 26.9488
1 19.2309 2.58179 12.8492
1 22.736 29.2173 3.3235
1 16.2855 4.01879 8.91692
1 15.1681 10.8978 29.3944
1 24.4556 12.0472 22.4748
1 29.6962 30.393 18.8081
1 9.76544 26.6247 18.7657
1 12.9202 29.5231 28.4849
1 24.2892 22.0298 14.1138
1 14.2759 1.52645 23.5096
1 27.0984 25.3118 17.5368
1 5.25041 12.1358 27.9313
1 5.52928 10.2758 3.5144
1 3.55234 0.57274 13.9373
1 6.54185 25.2977 7.45051
1 12.4044 24.3475 11.8611
1 16.8135 18.8 14.9955
1 0.18763 24.2129 26.2977
1 8.93591 8.81562 8.25553
1 27.9855 13.2575 12.7503
1 20.5742 23.9553 9.80487
1 7.56228 6.3301 12.2088
1 16.6805 23.2186 1.73288
1 8.49117 23.4043 26.4621
1 4.82005 20.947 11.079
1 7.64573 15.8921 2.86856
1 19.353 22.8169 15.3192
1 11.3736 12.8434 17.2787
1 1.07708 25.8506 11.9029
1 16.2267 20.2127 19.1765
1 1.95679 1.30348 15.1736
1 19.5506 24.2198 26.6303
1 13.3685 15.6329 0.274631
1 28.2702 10.9944 22.4344
1 22.7492 7.70262 20.9674
1 27.4969 18.0089 7.15165
1 5.12477 16.092 12.0269
1 21.0617 14.0313 15.5463
1 21.3435 4.98543 2.21189
1 19.1134 2.45844 15.6858
1 15.0486 1.62375 21.074
1 16.2857 4.97489 1.12723
1 5.23235 23.6407 5.59998
1 16.2441 29.3538 13.9448
1 17.6594 3.80101 5.59746
1 21.8729 0.469481 21.4162
1 8.13338 22.1971 13.9977
1 12.289 8.19069 1.84362
1 9.16147 20.6018 27.668
1 20.8554 7.71514 13.1817
1 2.35594 10.6862 17.0441
1 11.5744 29.3213 3.14846
1 6.21071 28.144 25.2653
1 25.065 10.9035 28.8108
1 0.85499 4.39808 17.0023
1 27.1018 24.8274 14.7125
1 16.7623 17.7248 13.8392
1 7.73219 7.7552 3.15377
1 7.66633 2.66115 5.11733
1 16.376 22.5582 7.82489
1 19.8176 21.9046 26.1808
1 22.286 19.9367 10.5339
1 2.10488 28.1829 20.4604
1 20.3235 3.72187 9.30768
1 6.17704 26.5261 28.2793
1 26.7369 3.49119 4.02375
1 1.6422 7.75193 1.69412
1 9.55824 24.686 8.90159
1 25.0676 1.99849 3.05901
1 18.2386 3.37064 25.9269
1 8.2846 5.45009 5.98497
1 26.5198 24.3719 19.7321
1 3.74144 8.69065 24.7442
1 3.24017 29.142 20.0079
1 25.4247 9.7576 29.6992
1 16.6348 16.3583 21.3903
1 19.1556 4.61505 14.1945
1 29.9753 21.8453 1.4349
1 0.822508 7.97891 7.07713
1 26.4934 26.2249 14.3164
1 22.6572 10.8101 26.8127
1 1.05161 29.7642 2.1415
1 15.1801 7.43628 20.3657
1 0.34794 9.92309 25.0445
1 19.6302 22.1707 8.23547
1 11.7281 6.18443 4.53937
1 21.4434 24.9903 23.7117
1 28.134 13.0381 9.62265
1 27.0336 21.2517 4.96095
1 17.3143 21.5255 7.60705
1 22.8913 20.1084 7.48752
1 3.50006 7.0049 4.59317
1 24.5009 0.141807 15.3671
1 8.65399 20.7435 25.3777
1 7.13296 4.0235 9.6756
1 3.50214 26.1471 21.0102
1 12.0883 19.5553 11.2327
1 20.5703 1.29699 6.24466
1 20.6533 20.6108 19.7092
1 0.685695 19.2834 0.767717
1 3.56235 11.6435 10.2811
1 14.1031 29.2442 29.4859
1 10.2824 5.15754 13.2062
1 11.2654 22.2408 30.0748
1 11.7411 12.9023 8.05023
1 13.6891 24.3112 18.6376
1 22.5004 1.85802 17.5081
1 18.6896 29.2051 8.55802
1 23.3956 17.7047 21.9623
1 22.708 15.2366 12.4563
1 14.005 22.9661 13.382
1 28.946 21.4674 4.54822
1 13.6994 28.3555 11.5389
1 19.9078 10.9179 5.79634
1 19.9145 8.02079 17.7912
1 24.7685 20.4794 4.38587
1 22.087 3.6695 10.6328
1 21.3855 26.2164 17.1994
1 7.22991 14.4284 0.829502
1 20.0102 11.0403 20.4561
1 30.161 19.4372 9.56931
1 19.2866 23.5826 20.105
1 9.28663 19.8732 17.9803
1 3.68888 28.461 11.9601
1 27.849 16.2312 19.0173
1 9.40251 10.06 13.4997
1 9.32116 24.953 12.6196
1 13.9078 6.17308 3.07996
1 9.37622 19.8425 12.7447
1 21.6276 5.51371 13.5188
1 15.0313 6.86361 12.7699
1 21.1872 9.93589 18.0016
1 17.7164 22.6165 25.4398
1 27.8831 22.1517 5.0076
1 19.4838 26.2746 3.64995
1 13.9303 22.5574 21.5139
1 15.3739 26.2235 23.8432
1 11.4946 25.3807 12.7668
1 22.0164 22.1871 11.2079
1 23.7992 1.29074 21.026
1 0.949542 13.3458 9.53684
1 22.6042 12.0649 3.11331
1 24.0979 4.75839 10.583
1 19.5421 21.1179 13.5036
1 26.0456 24.1777 29.6371
1 4.90535 24.4459 29.5943
1 23.1479 13.3551 3.07077
1 20.0069 2.62177 10.4458
1 9.05043 20.0762 6.29823
1 24.8129 3.59634 9.5224
1 7.77128 19.9356 13.1255
1 10.754 4.42736 25.9784
1 11.2485 24.0752 3.1534
1 27.2993 11.4204 25.025
1 20.7107 23.2075 5.39677
1 6.35342 23.6839 23.1856
1 8.91374 20.4668 9.97297
1 13.0917 6.97349 23.9321
1 22.6482 26.9749 11.3232
1 1.17949 11.335 12.4147
1 19.691 25.7912 7.92317
1 13.866 20.3461 19.157
1 18.2101 10.1278 13.6207
1 8.64222 11.6544 19.494
1 4.37584 22.2316 28.6291
1 14.8325 7.44332 16.8207
1 11.2063 18.2722 13.3708
1 26.3863 8.36885 24.7333
1 27.6141 8.09568 8.78927
1 18.5223 11.459 20.9268
1 2.0317 13.532 8.57438
1 12.9272 29.3993 6.22989
1 24.1598 16.4229 15.9687
1 29.4918 12.0438 3.23278
1 7.81509 6.77173 13.7104
1 19.7783 14.8856 20.0962
1 8.14224 13.0878 22.8905
1 13.7913 1.38633 5.42369
1 24.3004 28.8924 7.56993
1 26.5319 7.92537 10.0767
1 18.9518 29.9511 1.01488
1 9.98571 21.956 7.6521
1 22.5803 7.82953 16.526
1 28.4343 5.32538 5.09262
1 17.6579 20.7977 1.77627
1 28.8661 5.40602 23.798
1 26.0199 13.1977 18.7273
1 16.0568 16.553 14.4272
1 21.6197 4.11735 19.9675
1 1.70878 28.6819 1.78256
1 6.04503 21.3413 14.4372
1 3.41789 9.59207 16.6326
1 5.55577 2.33637 7.20253
1 22.5872 20.3601 1.43317
1 27.0582 23.8423 25.8576
1 28.6997 30.3373 6.23857
1 19.1685 21.2007 4.84204
1 10.148 2.78726 4.61977
1 29.8109 18.5203 6.60511
1 6.0583 13.5113 17.7016
1 24.9179 2.73355 18.2069
1 25.221 17.8932 28.8236
1 28.8783 18.3268 19.0299
1 11.1142 5.92276 24.3055
1 24.4491 8.24943 8.82462
1 17.1632 5.40352 26.6333
1 18.8725 23.2255 2.4637
1 18.9129 5.44641 11.8704
1 2.47259 21.0369 7.64741
1 8.57017 16.6216 14.4511
1 22.8062 18.9265 21.8807
1 9.36973 28.2344 24.8344
1 3.53899 12.032 3.93337
1 8.29852 14.0766 27.6073
1 22.0772 7.47975 2.55037
1 28.6333 13.756 18.82
1 19.503 3.49909 20.1394
1 5.48903 21.1637 4.34987
1 20.996 14.9945 6.59126
1 26.2334 14.6026 18.6617
1 21.5818 8.80691 11.182
1 25.2975 28.9851 26.949
1 2.35987 14.644 1.02215
1 24.144 26.9793 21.8033
1 3.51849 1.06198 18.3669
1 15.6206 11.22 9.18933
1 8.95022 16.1822 15.8022
1 0.701261 4.6029 7.41406
1 29.7896 27.6095 18.0574
1 25.7393 22.3645 17.0041
1 0.596284 3.68363 3.72153
1 7.46928 8.55966 11.2959
1 17.7835 0.222647 2.95449
1 27.924 26.4595 30.2454
1 18.3823 2.104 25.0214
1 21.5475 4.38217 18.4167
1 26.6602 8.46445 6.31495
1 22.4423 2.92747 24.4032
1 13.9122 18.0156 5.56725
1 11.0253 15.6969 29.9678
1 5.92577 18.3389 14.2285
1 11.4024 23.829 4.57573
1 24.6432 22.1493 29.0815
1 20.8463 20.5375 13.4663
1 28.793 20.2863 4.122
1 13.0002 6.77348 11.1249
1 18.4775 18.9457 28.3215
1 10.5111 5.81509 25.7958
1 9.43474 10.6581 5.71949
1 29.6322 23.4902 23.281
1 23.1782 4.82122 3.37342
1 5.42918 16.1409 4.21918
1 27.9237 29.9818 14.1208
1 1.21841 0.48032 17.4017
1 6.12376 6.18862 28.308
1 14.164 1.9865 1.10343
1 13.3827 22.046 29.2976
1 27.6201 12.8149 24.8131
1 14.1998 14.5825 5.87064
1 9.33667 18.9951 10.4977
1 8.34096 7.66892 15.7403
1 4.54155 26.0939 24.2379
1 29.3759 2.03803 9.15735
1 29.572 27.4973 1.802
1 5.15527 6.35515 1.69277
1 12.4931 5.09334 14.0617
1 13.4902 7.65289 25.8928
1 3.28464 16.7142 30.3682
1 19.2578 21.6587 23.1252
1 5.92055 8.52726 6.59596
1 28.7172 7.82826 11.388
1 5.43655 26.0935 9.30408
1 5.89078 22.3749 23.133
1 7.29472 1.82921 24.3349
1 16.8457 9.33018 6.05284
1 25.4233 0.465566 22.3641
1 13.6571 4.29849 30.1102
1 24.5078 23.4059 8.47534
1 30.1076 8.02616 16.3165
1 9.41762 2.70642 28.4946
1 21.3504 22.7431 22.5249
1 25.1667 19.0473 4.22102
1 15.7065 27.8452 14.0665
1 13.112 9.89036 11.3057
1 13.1626 11.9273 13.522
1 14.5924 18.7 8.84844
1 2.71915 18.1221 0.64504
1 16.3807 15.8431 16.5854
1 26.7306 15.0155 25.0022
1 3.27357 14.4976 12.0039
1 10.1424 17.4964 28.3242
1 7.01663 26.3271 6.54322
1 10.485 23.0701 11.0794
1 18.7695 21.1234 7.8785
1 3.46757 16.2236 14.6235
1 0.735346 5.59536 21.3814
1 24.9183 17.734 1.2197
1 11.4594 17.7222 20.5203
1 9.61737 14.2095 8.65283
1 27.0508 26.3748 9.22791
1 8.17301 26.176 22.6499
1 29.5515 29.8552 3.2613
1 13.2218 24.6748 24.0946
1 16.5515 1.62855 20.5226
1 18.5101 17.4064 19.2354
1 2.47735 3.65121 8.955
1 9.51193 25.0379 19.5204
1 26.9241 17.494 12.7258
1 26.9159 11.0122 8.73217
1 11.7727 5.23288 29.3251
1 11.0912 1.59444 15.5547
1 12.5902 10.0418 21.9488
1 19.9939 26.6707 20.1665
1 18.0645 16.0071 18.6359
1 24.0123 14.6396 12.8398
1 20.2179 27.911 17.9468
1 28.1032 14.3395 27.9313
1 3.19468 2.16784 17.4457
1 10.1295 19.2769 13.895
1 4.90744 22.8601 7.72008
1 1.77933 24.1266 14.7515
1 15.3206 18.5201 25.7475
1 5.82812 10.0236 26.9328
1 13.6831 6.30483 28.0769
1 12.2753 20.6933 13.4025
1 14.3216 23.3106 16.1934
1 11.6536 0.552567 18.9658
1 28.6396 18.3894 0.743876
1 15.3769 6.59305 3.39682
1 11.8865 19.9466 1.75671
1 19.7067 28.7299 0.268368
1 20 8.62914 2.72381
1 21.9554 17.918 1.14134
1 6.69826 19.1934 28.2685
1 30.2201 4.41148 21.7555
1 18.0138 25.6769 0.462306
1 21.8846 21.4544 13.7554
1 0.19761 4.47999 13.9898
1 7.59818 28.9441 22.7812
1 29.4161 6.56663 20.2521
1 1.57082 22.1349 23.2159
1 7.19135 24.0617 20.8778
1 5.36514 5.61752 10.0123
1 4.12264 14.4568 2.55336
1 13.5961 29.7737 9.30026
1 18.8327 15.8251 29.6945
1 1.2357 17.5594 18.602
1 16.6948 9.16559 21.5105
1 3.96637 3.13716 10.434
1 14.4618 5.09853 24.5662
1 3.38133 26.6165 13.8368
1 16.1041 16.4012 28.4439
1 10.54 23.4653 1.25891
1 16.7387 1.36911 11.6841
1 15.3606 6.95354 17.9496
1 30.2379 23.9329 2.79952
1 20.0104 17.3149 19.5184
1 19.9685 24.9514 10.9243
1 11.6513 13.2313 15.9879
1 12.1436 25.6635 22.2335
1 3.82469 14.6911 1.21647
1 17.9715 29.7655 9.66725
1 9.74356 4.85319 17.8272
1 13.9358 29.5788 4.3862
1 5.97992 8.31741 14.541
1 25.7738 29.4544 29.7454
1 6.26395 3.82795 15.5726
1 26.6511 6.2119 24.241
1 13.9388 11.724 8.92635
1 11.2713 27.779 3.23877
1 23.2574 12.6008 15.9573
1 20.6755 19.6006 21.1288
1 23.1676 3.91222 7.62336
1 16.4428 21.0081 22.2778
1 20.2469 30.4416 16.3386
1 14.3574 7.35285 28.8286
1 4.94162 4.11203 28.1411
1 23.1542 29.7272 0.186093
1 19.0567 22.3287 13.082
1 9.43065 3.78441 26.5193
1 1.85879 5.24524 26.6191
1 7.49299 27.872 17.9756
1 11.2812 7.78317 15.3746
1 14.0547 29.5662 20.5674
1 16.8409 18.8618 21.5757
1 4.15829 17.8614 18.9705
1 19.8518 6.82436 21.9185
1 23.0103 26.3672 6.6623
1 7.89883 12.8516 10.2563
1 4.49595 24.8897 6.15409
1 19.5942 29.478 6.04496
1 18.5601 0.721386 9.89687
1 17.9846 26.725 4.29045
1 11.6706 19.7298 16.837
1 7.92071 30.1261 27.8757
1 18.9047 2.92468 27.2592
1 21.1204 24.5122 3.29053
1 28.422 10.8883 8.8525
1 28.4156 13.863 7.16709
1 3.67589 12.3811 21.2905
1 27.2616 1.73081 24.4183
1 2.18798 24.8778 17.3208
1 27.0974 7.19324 12.5641
1 3.84956 14.5966 22.7657
1 10.6521 18.2795 4.35627
1 11.7003 12.6366 1.42327
1 24.8136 13.1791 19.2228
1 17.7792 8.53729 29.0937
1 20.457 9.41299 3.81342
1 24.2246 22.3411 20.0623
1 7.70179 7.37116 27.9177
1 9.54101 3.0481 22.6326
1 0.419382 6.70424 20.5865
1 25.2842 4.28404 0.21229
1 10.8388 22.6615 6.58319
1 6.84405 30.1231 0.317133
1 13.6784 4.07918 10.562
1 8.27254 29.1297 25.4803
1 14.431 19.5937 7.62092
1 24.9379 1.19269 10.2683
1 14.6813 16.0984 25.7409
1 11.8621 21.9138 21.5452
1 18.3839 23.645 15.7588
1 6.74083 1.79053 12.2228
1 17.7875 23.3086 22.0747
1 21.7766 25.9783 0.723464
1 25.7999 24.8737 2.33489
1 2.5804 10.8182 4.33547
1 5.38801 26.5115 1.09486
1 8.44071 5.17863 22.3083
1 11.1363 12.2511 14.8722
1 10.9181 15.9892 18.7615
1 8.73664 15.298 24.1104
1 3.75481 30.4034 21.5367
1 11.4048 16.9995 5.54525
1 22.203 11.2965 19.9516
1 1.39551 13.1653 3.67768
1 14.2923 26.5673 7.83373
1 16.0519 13.139 7.44809
1 23.7374 11.0042 25.0242
1 25.5685 5.04562 19.0771
1 3.21563 4.38235 3.56079
1 4.20374 15.1104 6.15611
1 20.8311 22.3425 29.1478
1 14.3046 25.6849 19.1425
1 26.5106 9.10567 22.5451
1 8.33367 8.13754 25.4068
1 12.0465 3.735 4.93511
1 6.41387 13.5572 4.39027
1 10.5474 10.8046 18.1773
1 14.0424 27.3581 3.11669
1 13.1801 10.5944 2.20843
1 24.3352 2.89034 22.7198
1 9.80503 4.81144 19.2462
1 7.38645 0.540662 2.94097
1 9.01525 8.33623 18.3268
1 2.47639 9.00144 29.6944
1 26.7301 3.68934 2.47396
1 14.3936 3.02411 23.3916
1 26.6023 15.5663 9.67502
1 24.636 27.8215 27.1136
1 27.9216 3.65083 1.69708
1 9.38639 27.2318 14.9717
1 4.33657 23.1964 4.70372
1 3.46856 19.1815 0.585999
1 17.0535 22.5201 16.1328
1 18.7777 6.68407 1.9702
1 18.9499 18.3734 16.3799
1 17.0705 16.1508 5.04849
1 18.4421 12.5099 8.80851
1 7.74577 20.658 15.6775
1 22.6627 9.69508 22.4848
1 27.4894 10.1154 15.7361
1 17.856 0.985585 14.4716
1 16.5141 4.45019 22.1153
1 29.4474 29.0943 19.7338
1 26.3071 7.66456 1.33498
1 18.5195 24.6957 20.5455
1 6.37613 5.51763 18.0755
1 13.3875 16.9619 2.18122
1 8.83016 16.9857 12.1998
1 25.4595 16.3364 15.898
1 18.7572 5.64463 9.82573
1 17.4202 15.4316 12.1789
1 30.4236 17.6178 15.7969
1 28.1987 29.6135 9.00202
1 5.8421 20.6418 15.9084
1 10.675 21.2596 23.6837
1 16.6884 1.34179 5.00259
1 9.79509 3.15767 12.0942
1 8.73618 6.81937 3.90982
1 24.8796 26.0203 8.50094
1 21.9275 12.8617 12.499
1 10.5156 2.64366 0.319501
1 18.8167 10.3128 26.6691
1 19.3237 15.8368 17.5453
1 22.1045 25.7001 20.1251
1 21.4206 2.06956 26.5142
1 20.1725 15.7556 10.0304
1 9.54076 24.731 7.58299
1 26.7595 12.0465 3.45449
1 0.820259 1.10139 10.3758
1 2.71215 11.3478 28.5067
1 30.3745 28.9952 26.4448
1 0.17448 12.1996 28.332
1 21.1215 0.935254 14.276
1 14.091 22.881 2.17969
1 20.5032 3.41246 17.6727
1 24.8246 5.82275 0.480151
1 17.8663 17.5059 4.83448
1 19.744 26.5835 10.7653
1 1.38801 21.6774 26.0016
1 2.6424 0.111008 20.1837
1 9.16592 6.38985 21.9683
1 6.82383 27.5882 6.57351
1 10.6456 16.9171 17.7868
1 29.7852 21.2347 23.0222
1 5.21978 29.0785 3.666
1 15.6309 9.91849 14.1233
1 3.49283 1.53089 22.2074
1 1.14427 5.17394 23.9185
1 16.48 20.4384 1.03131
1 23.8212 1.14386 6.7181
1 21.7406 3.30643 29.9058
1 19.5362 17.5955 26.9266
1 17.9378 28.6755 28.908
1 18.0007 24.3461 17.0333
1 6.45728 26.8918 12.8661
1 30.0758 2.14243 19.8565
1 14.2272 16.7806 22.641
1 6.9036 14.9439 14.1111
1 24.1573 13.9091 25.3742
1 18.5032 23.4897 18.1125
1 28.6153 9.96326 0.310256
1 4.71672 0.527638 0.460417
1 1.86724 15.7544 22.7556
1 7.80307 9.73131 7.51684
1 28.6988 9.14725 9.09296
1 16.8301 29.9409 19.1232
1 14.3013 28.2123 4.55363
1 17.5283 18.6266 16.4229
1 23.3365 22.1076 11.7494
1 9.9923 26.4742 17.3855
1 23.7921 8.90671 12.8859
1 4.34658 15.9958 0.386411
1 16.6177 11.7196 24.0482
1 25.5045 21.5359 4.76948
1 23.0346 28.0517 21.7036
1 26.3095 11.2412 28.169
1 24.8659 27.6779 12.1147
1 4.81292 14.4734 7.45012
1 30.0686 8.96949 2.38895
1 17.2928 12.74 29.0619
1 23.9877 6.28718 4.17091
1 21.9365 17.6792 16.3032
1 3.92368 12.119 7.67682
1 27.7914 24.4542 29.701
1 2.63886 17.057 9.5413
1 13.648 9.88195 6.1529
1 2.51697 6.55661 2.10162
1 7.47443 14.4272 15.3654
1 9.83795 28.2486 7.02815
1 26.9627 30.4161 1.48402
1 19.7534 20.7581 1.23617
1 4.1726 21.6497 4.53279
1 16.6803 27.0827 16.9429
1 29.765 17.1822 21.8832
1 25.6081 9.43486 25.4142
1 13.3762 9.33946 30.3094
1 7.09969 28.1956 9.02097
1 13.237 22.0034 16.0837
1 3.8305 22.0806 10.9654
1 28.8331 28.097 18.9298
1 26.4142 1.36495 21.9722
1 6.60985 21.2363 25.2796
1 8.14362 21.2016 20.4056
1 5.60315 30.1482 7.73581
1 0.426753 22.6725 17.1798
1 26.605 11.3635 0.664157
1 23.5992 27.7085 16.7343
1 6.95725 21.987 21.0863
1 8.63059 28.6245 3.41337
1 28.6583 18.996 9.91944
1 22.3485 14.3057 1.246
1 29.4727 19.6296 0.547886
1 28.5753 30.0883 11.5064
1 10.1828 2.23417 6.36739
1 10.2351 17.4132 1.70068
1 13.698 30.0316 25.5672
1 1.07316 14.3599 25.3885
1 19.1588 3.99692 23.7015
1 10.1265 6.77285 19.8227
1 10.6269 21.3699 4.55647
1 17.8425 22.1723 18.2902
1 4.30788 1.27987 27.2043
1 19.7379 28.7363 12.0377
1 14.1048 19.7275 17.8479
1 2.51997 21.0613 23.2162
1 7.56666 14.6549 24.7038
1 24.0797 26.9633 9.15409
1 28.9353 14.5899 24.8167
1 16.2101 24.2725 14.3602
1 7.65459 4.53423 6.95186
1 15.2168 5.68215 23.4828
1 27.4709 20.0352 4.66277
1 23.9037 17.4757 25.7389
1 10.8012 29.4078 25.8476
1 16.8365 20.045 29.9634
1 10.8334 20.3953 8.95176
1 13.2541 21.4123 18.3125
1 7.73805 5.98208 20.2468
1 8.88334 18.8265 11.7054
1 21.9783 19.0212 16.2648
1 13.1391 21.4059 24.5733
1 4.29218 20.1378 22.0893
1 27.6497 5.63108 10.6241
1 12.3339 10.759 20.7194
1 19.8888 9.58249 22.4415
1 25.6386 4.1022 12.1176
1 22.8008 2.19482 14.7013
1 9.74085 22.5322 10.0215
1 24.8677 3.11848 12.5014
1 5.68573 20.3171 1.06831
1 12.107 2.41537 2.58274
1 20.3923 27.4337 11.8478
1 7.51225 24.4022 8.15859
1 20.6191 18.4048 18.3689
1 29.6988 5.33149 9.44866
1 18.5148 11.6075 13.2085
1 15.5 1.49986 27.3913
1 2.1243 0.645276 5.04455
1 19.3297 6.99431 26.7253
1 15.6244 14.0472 8.46541
1 8.00898 10.2149 19.6962
1 27.8965 8.87093 30.0729
1 14.7647 18.6747 6.43436
1 1.00915 5.46951 12.6566
1 20.5391 13.7302 6.01955
1 23.7282 18.3777 29.0335
1 21.4062 16.3817 21.2852
1 1.02952 5.31324 27.8085
1 6.24727 27.3895 9.90141
1 2.94025 25.272 0.951245
1 24.3083 2.2613 9.35957
1 17.1391 26.0508 5.41242
1 15.1777 9.40758 2.98803
1 6.5631 19.733 6.65778
1 22.405 24.3354 11.6451
1 15.5887 8.9802 10.289
1 16.988 9.1751 23.7527
1 12.6418 5.23355 21.6544
1 25.9263 4.05472 6.98324
1 17.0587 3.62269 4.09138
1 7.99722 15.4851 1.60446
1 1.97723 25.1346 1.98817
1 8.46412 24.5927 9.64807
1 25.06 5.72964 16.7421
1 6.21038 15.5244 3.09404
1 9.41355 25.6482 2.39956
1 2.41285 16.5542 25.6367
1 8.25894 27.8131 20.2463
1 12.3024 23.6542 8.58144
1 2.82483 9.03473 6.57903
1 14.4678 10.3575 16.5198
1 22.8152 27.0399 29.101
1 10.7056 24.1504 6.84886
1 4.81893 11.0105 24.1328
1 1.47 19.88 16.4949
1 26.7289 15.6172 7.10139
1 8.86754 7.76667 5.33061
1 19.1536 17.8805 5.11325
1 29.9803 5.86695 14.8513
1 27.4196 29.8647 29.2504
1 9.43358 8.95393 26.9833
1 28.011 20.4338 7.2926
1 2.45432 21.6893 10.8138
1 13.2651 8.48302 21.8645
1 5.4943 3.60575 16.7428
1 18.919 3.42508 18.0265
1 22.7024 18.0848 4.27392
1 8.54346 26.3086 4.35497
1 0.404187 0.242563 27.5552
1 19.2555 1.79559 5.80093
1 24.3737 3.4343 29.7204
1 14.0146 1.33063 16.2562
1 6.49629 20.5744 7.94841
1 5.05666 19.2419 0.438248
1 18.8831 17.0185 23.8066
1 12.3282 21.5737 12.3234
1 14.9842 27.5402 23.3408
1 3.62139 1.183 23.5809
1 9.72502 16.0691 10.3395
1 13.5013 8.78702 19.2414
1 8.40246 24.1704 25.0879
1 6.44077 27.6002 7.99295
1 17.6139 6.79179 24.2902
1 29.3745 19.8569 6.94653
1 19.3198 19.1745 22.9747
1 6.97252 2.52015 22.0779
1 29.7927 6.41115 23.2409
1 9.23482 23.5846 28.3605
1 8.32763 15.7956 6.79662
1 24.5086 29.0365 15.7412
1 11.3655 3.53323 1.01855
1 18.8922 28.7076 13.2738
1 21.4526 3.51679 27.0851
1 18.7441 27.4671 6.43147
1 4.96345 4.78142 1.57577
1 12.1867 5.71276 11.6776
1 17.1572 23.2133 29.4076
1 6.33802 5.37605 15.5504
1 22.7201 13.8909 25.5431
1 11.2325 5.94874 30.373
1 21.0186 2.53768 2.70169
1 28.1403 11.4557 15.8624
1 10.5306 7.84869 26.7217
1 3.84068 10.2238 10.7482
1 15.7705 18.1196 30.2538
1 24.6646 9.21532 27.1999
1 12.0518 4.80715 6.88715
1 13.6192 29.7308 11.7714
1 14.6942 23.4207 10.258
1 11.6048 17.9082 22.0978
1 21.9851 9.83364 14.3406
1 16.683 11.5134 12.3413
1 1.65644 7.45321 27.5479
1 14.5793 17.1299 0.199625
1 1.97561 15.9116 9.47953
1 20.2533 9.81817 11.2018
1 11.4114 8.08171 18.3001
1 30.0615 5.03804 1.89096
1 23.409 3.69803 14.3872
1 5.46328 17.8776 26.2172
1 14.3806 7.03824 10.5745
1 2.04465 4.73731 17.7357
1 1.06674 11.0248 27.8606
1 19.7426 13.2725 1.63727
1 2.68908 12.3638 8.38414
1 4.38389 17.5978 25.2578
1 30.2535 0.988757 20.2399
1 4.40139 5.37774 12.7463
1 15.4524 22.3227 1.83834
1 1.90659 13.3106 1.2458
1 9.46828 16.2539 13.2332
1 3.77103 4.48696 28.5163
1 30.3059 6.08861 4.02289
1 3.66446 12.6257 13.7552
1 18.9798 6.19363 14.3183
1 18.5316 17.1379 26.1441
1 25.5304 3.70943 1.72296
1 23.7084 19.8976 10.4204
1 25.1387 17.1844 7.14288
1 18.4678 28.1208 26.0103
1 21.7886 2.72334 20.3126
1 28.4847 10.0664 19.9786
1 13.9165 5.53973 21.8705
1 12.9829 11.2731 11.2224
1 2.55571 14.6124 22.227
1 9.76958 16.1058 2.2508
1 12.5577 19.9834 20.0418
1 17.5581 20.0461 16.8558
1 11.024 7.97365 10.9705
1 14.0333 24.219 2.96699
1 27.1846 29.859 20.3664
1 2.04961 25.6897 3.3069
1 21.7838 8.87066 20.2062
1 17.8017 11.2344 18.3708
1 22.9727 4.2618 17.8027
1 3.54825 17.2258 29.0363
1 18.2151 6.04381 19.5848
1 23.2923 9.49194 25.2485
1 15.4137 12.4157 29.6893
1 17.3306 29.0098 4.89074
1 26.5335 13.6818 25.0034
1 7.11372 26.6173 15.0715
1 10.6538 18.8635 26.6066
1 21.9159 28.4485 5.92535
1 3.39386 3.2047 1.4639
1 21.7234 12.4996 19.6289
1 19.4579 24.4724 25.1872
1 5.25602 17.6466 24.0319
1 7.96272 1.71822 2.07822
1 4.93326 28.0961 25.0538
1 6.76263 2.77416 23.3474
1 23.6443 14.2217 22.2648
1 29.7474 13.2065 6.99521
1 7.69765 19.5113 6.03537
1 18.0747 22.0004 24.1096
1 27.9222 29.085 7.06001
1 26.5617 5.71742 19.7202
1 10.0895 13.4469 11.3505
1 2.74844 4.21795 25.7997
1 27.9997 1.03915 0.950073
1 6.18126 27.9331 29.63
1 17.7122 16.5179 7.54014
1 25.0052 1.43511 18.8454
1 30.2379 27.4523 10.5207
1 22.476 30.3408 26.858
1 18.4753 15.7221 25.9241
1 17.4793 17.0597 23.4243
1 4.26376 27.1796 16.4121
1 24.1788 7.289 25.6255
1 3.60452 27.9763 30.303
1 13.893 22.3709 8.28037
1 19.2034 15.8954 3.33441
1 5.12999 13.2808 30.061
1 11.5541 18.3571 3.37418
1 26.5183 7.003 3.84093
1 24.2266 26.7174 17.6036
1 6.89042 24.0827 4.86311
1 7.25103 10.1904 1.65628
1 25.4643 2.9381 7.54445
1 23.2715 0.130654 24.6378
1 5.14993 10.6434 27.989
1 2.17017 8.68618 28.2211
1 0.509517 12.0468 3.50575
1 7.64396 21.7374 7.74056
1 1.74833 13.5182 21.7537
1 23.8996 3.33356 27.5292
1 29.1558 2.86753 29.8698
1 8.56649 0.557734 27.0295
1 12.8187 8.00739 5.14108
1 0.971193 27.5205 19.9231
1 5.54836 18.8331 6.62482
1 22.2438 7.85549 30.115
1 25.1795 22.7281 5.26052
1 14.7886 11.4746 17.3489
1 28.9594 6.11756 29.192
1 21.7622 9.99716 20.9859
1 11.3297 29.023 23.5845
1 3.99045 23.2988 17.1966
1 11.7883 18.522 14.6085
1 23.6472 24.9203 23.6875
1 13.5186 23.2233 28.0034
1 25.7347 2.27625 1.36879
1 5.71081 3.77277 21.6135
1 1.22863 27.0572 12.9888
1 10.4893 16.3323 16.3179
1 12.4853 6.69549 13.5627
1 15.3978 7.06391 29.9858
1 18.9165 1.77677 17.1326
1 28.2127 28.5956 13.9286
1 8.2767 27.3612 0.701681
1 4.41262 10.4545 8.05085
1 9.46817 17.4958 4.00392
1 16.7048 29.6087 15.387
1 12.7506 16.6045 22.386
1 25.7822 18.9131 10.1304
1 0.880566 3.40227 16.0069
1 12.3822 12.168 20.8996
1 2.08852 12.3885 25.1718
1 3.58095 6.2585 16.0568
1 20.1206 18.1408 10.287
1 6.39252 13.2239 16.3655
1 25.4316 18.0312 12.6739
1 23.1732 9.09317 13.9958
1 1.56185 10.9808 21.4397
1 8.21778 8.78811 27.8763
1 27.7112 20.9298 1.50272
1 5.19334 27.7725 21.828
1 25.5023 17.112 19.004
1 21.1051 30.2224 2.08007
1 0.345958 25.7509 26.2939
1 27.6345 6.08655 28.2896
1 8.53965 22.6983 23.5538
1 11.4626 3.46228 3.61938
1 1.18549 18.7507 19.1735
1 23.9238 3.86964 3.74555
1 27.6898 24.5593 1.49697
1 2.03411 27.4322 15.8224
1 30.1813 17.5114 13.0482
1 16.3212 8.02731 5.88055
1 19.7677 1.12 20.0932
1 10.4379 26.2035 14.5587
1 4.61905 14.7606 4.82309
1 28.1902 25.8221 26.7031
1 20.0062 17.814 23.2901
1 30.438 27.7929 4.39949
1 10.3735 19.4322 6.66225
1 26.4937 0.705991 18.3804
1 0.121469 9.07784 15.4061
1 8.2636 23.0343 9.99097
1 15.3644 21.3766 1.017
1 28.8803 19.1927 22.427
1 26.6239 3.6679 23.7058
1 22.7881 17.1133 28.6469
1 19.8624 7.89812 16.1963
1 19.6295 14.6318 9.34558
1 17.9583 27.4204 18.9173
1 27.3167 9.70609 11.7056
1 8.01277 3.20827 28.053
1 27.7309 30.2035 25.8758
1 15.851 9.17897 27.6129
1 25.9286 13.6795 28.0388
1 27.6868 11.5955 5.88636
1 28.762 16.7589 10.1247
1 9.28902 18.349 29.2291
1 30.2791 2.31956 16.5643
1 7.87104 7.35119 24.167
1 7.12795 13.5431 29.8407
1 11.8871 16.6327 25.1942
1 28.0824 5.69205 17.651
1 29.1466 16.9875 19.1548
1 5.99927 4.88396 27.7683
1 21.1905 29.5284 10.1657
1 11.0812 12.3296 26.5596
1 8.88527 9.3415 9.63132
1 6.40008 15.1473 22.4926
1 10.5615 19.384 18.2848
1 29.7829 0.884729 24.8415
1 25.2225 7.5189 29.0327
1 22.7964 7.06161 27.9143
1 9.24596 5.63769 16.4346
1 23.7881 23.6829 2.40244
1 25.4749 22.3342 1.76889
1 11.2052 29.8233 24.6052
1 11.8651 25.8589 18.5079
1 21.1746 17.0927 25.4017
1 5.9499 15.458 7.70292
1 1.18697 28.6082 7.09494
1 4.47626 15.1148 26.051
1 20.0431 26.9937 13.1821
1 26.5815 22.774 14.2257
1 25.8793 26.6776 11.5398
1 15.5196 12.3444 14.5332
1 21.7786 16.5538 29.7028
1 12.716 21.5705 8.44956
1 14.7478 18.2291 16.0619
1 25.6007 21.7818 19.9571
1 15.4811 27.9771 26.8781
1 23.5641 2.56052 24.8862
1 20.4708 28.5969 22.772
1 25.9091 2.5061 26.1228
1 9.4362 11.8813 6.5006
1 24.978 11.5956 25.0759
1 4.15503 8.75698 17.8033
1 3.41287 6.18135 7.81327
1 7.09444 13.4987 9.13561
1 3.10633 1.64429 26.8478
1 2.03731 0.875295 0.280106
1 24.894 7.12722 22.0969
1 15.6632 16.8789 3.14851
1 4.71316 11.3275 15.4837
1 16.063 10.8523 5.55144
1 19.8098 0.487699 1.80395
1 29.7307 25.9623 23.8214
1 22.1225 6.5261 11.2259
1 29.1754 16.354 27.7932
1 30.0591 30.3468 8.3947
1 21.3202 2.33633 24.8971
1 8.16192 12.338 18.3669
1 17.6895 27.5535 1.86182
1 29.8318 21.5215 10.5111
1 0.816048 4.12413 29.0117
1 27.7639 3.494 22.7625
1 8.21122 2.69273 14.2357
1 10.2802 26.8534 22.9363
1 2.08492 15.8405 0.492572
1 16.4012 18.1709 17.5056
1 19.2519 16.9052 16.4218
1 21.3747 6.03841 18.0485
1 22.4114 13.8513 3.83994
1 17.4564 7.74114 9.984
1 10.2157 11.6244 17.0192
1 7.3236 22.6111 6.74997
1 11.4066 5.00499 5.46079
1 28.6862 2.41318 5.66997
1 11.657 27.5027 8.90809
1 6.75414 10.0174 2.94655
1 3.17551 14.4429 14.4323
1 17.3867 5.21958 0.398129
1 16.097 23.4174 20.5884
1 21.1821 29.8648 29.047
1 6.39442 8.40113 0.72619
1 1.71604 22.2754 17.1791
1 4.31399 12.9379 29.0344
1 29.4256 28.5035 30.2668
1 8.68175 23.3815 2.21566
1 10.1631 9.17735 10.8734
1 17.1797 9.42974 20.2036
1 15.9389 10.3398 2.53828
1 24.9946 3.66759 21.7507
1 26.2157 17.4607 15.9143
1 9.93547 29.6142 11.1244
1 16.5284 25.3733 22.0591
1 1.46844 23.2347 28.3246
1 2.4925 24.9897 5.40139
1 23.3359 30.4323 22.9297
1 26.4663 7.57342 26.8881
1 0.766652 30.0602 28.9545
1 25.3553 26.5843 0.172916
1 21.2711 5.80743 27.4437
1 0.639827 29.9663 21.5922
1 14.2793 10.4033 3.09472
1 10.0102 6.83743 2.90579
1 29.2217 7.48353 19.1446
1 10.6363 22.188 12.316
1 10.2169 10.9321 22.4956
1 8.3462 9.83339 18.4714
1 26.6596 29.4418 7.58494
1 16.5171 18.2218 12.5155
1 14.7109 12.933 22.9412
1 24.4345 13.0393 0.686753
1 18.4599 14.2584 7.47877
1 29.541 6.79834 12.19
1 22.1066 0.826715 1.5202
1 26.0132 1.65495 7.62138
1 25.58 5.03306 28.2017
1 22.3781 16.5552 0.986212
1 4.97963 22.5196 20.6602
1 0.715278 7.24149 3.84442
1 14.9312 17.6334 23.4962
1 2.09019 8.76961 10.9265
1 4.17454 5.34492 16.8615
1 3.19054 20.7927 3.91819
1 8.45423 30.1116 3.37916
1 18.0775 9.36227 1.04633
1 24.4441 15.73 3.36148
1 6.73233 8.05835 25.0294
1 7.54362 19.6054 0.466865
1 0.578322 1.47836 13.8215
1 13.6613 29.8075 2.13092
1 30.4094 14.7511 0.582274
1 23.1737 26.4951 15.7631
1 20.0588 23.1005 14.0225
1 17.1903 7.9409 3.25388
1 26.698 26.9358 30.1527
1 27.1669 3.5101 18.7671
1 25.5147 21.1141 16.8719
1 14.9174 25.9183 9.04083
1 1.95444 22.1781 8.3351
1 27.0989 3.05245 9.76095
1 1.95414 10.1154 8.81235
1 28.0863 28.1527 24.8533
1 6.06116 25.9133 18.8963
1 27.6316 18.4823 13.2958
1 2.59497 12.9629 5.77472
1 3.74167 6.31257 1.04375
1 3.01208 22.9524 1.52533
1 3.89907 15.7314 27.4718
1 21.4737 6.22125 4.54139
1 20.3187 6.9247 18.358
1 14.599 2.02887 10.7267
1 0.665596 1.64116 23.2083
1 4.46921 27.5101 11.531
1 14.4546 1.45007 18.6507
1 2.37299 16.4839 18.1761
1 21.4472 6.80511 14.2799
1 15.4566 24.9931 1.10857
1 7.3608 19.2292 18.7483
1 19.4642 28.1494 5.51346
1 14.5112 8.22258 1.89371
1 17.082 9.81919 14.6049
1 23.1456 6.30394 25.1907
1 24.6607 25.6469 2.112
1 20.0608 17.2421 7.68743
1 16.094 0.637767 9.0135
1 3.35038 23.4957 24.7308
1 2.01421 29.8251 29.4449
1 2.97618 20.4655 0.741772
1 12.5541 18.8768 28.3936
1 29.2308 3.10239 17.228
1 13.3305 5.82479 4.57162
1 29.2866 23.8114 26.0968
1 10.9272 19.5483 0.683838
1 15.5468 16.4417 19.187
1 28.0872 3.75306 4.86542
1 19.498 5.73178 19.8656
1 4.27507 21.6649 19.8681
1 14.4976 10.3572 0.237508
1 14.7748 25.764 30.406
1 8.3934 15.4153 26.7204
1 20.6162 22.5911 18.4197
1 24.3288 15.2733 25.2952
1 25.8186 27.7312 5.65766
1 21.4718 24.451 0.152843
1 26.9484 9.69234 3.12502
1 17.7067 18.2722 19.9
1 21.0854 11.5758 22.7578
1 18.7849 3.25958 0.204309
1 7.19454 4.70274 26.5585
1 1.0177 10.3025 17.4749
1 29.1967 3.63194 3.6523
1 5.46095 1.28008 15.4084
1 25.6159 5.89382 3.89079
1 0.657508 25.1788 19.2282
1 18.172 29.7896 5.99974
1 5.11224 18.2467 27.6149
1 16.1501 27.273 29.9231
1 29.9517 29.4099 25.1198
1 12.8477 29.4201 1.00675
1 2.68001 23.6827 26.0582
1 22.036 2.25928 1.75363
1 20.7528 1.45485 24.1077
1 9.35557 19.868 28.9111
1 13.7649 30.0875 27.1848
1 26.209 4.03733 9.64642
1 16.9571 2.97216 9.86168
1 5.25721 10.6787 14.4797
1 25.2522 28.7562 13.1956
1 22.6362 12.7258 9.70721
1 10.9616 1.18776 2.55215
1 26.3171 29.3192 24.2261
1 9.42918 24.8375 29.1077
1 14.0915 13.4039 27.1231
1 8.18833 3.40823 7.36017
1 9.48293 12.8116 5.25996
1 2.73766 20.4027 12.7567
1 11.6366 4.02607 22.301
1 15.4051 15.9288 13.4835
1 0.445051 14.5968 28.4082
1 27.6914 6.68915 8.40209
1 14.8583 8.7631 13.9118
1 26.1016 28.0234 17.393
1 9.52837 21.4558 20.1529
1 4.56738 15.446 18.4084
1 12.3132 15.0539 4.73297
1 12.5352 14.0537 10.0905
1 28.6009 1.77556 25.2891
1 0.842747 23.0585 4.62659
1 4.54538 18.5698 12.4273
1 17.6073 19.7053 23.7701
1 18.4243 6.37409 27.6701
1 19.9874 30.2216 3.44331
1 0.378454 29.6788 12.5974
1 14.4421 21.7752 13.7738
1 18.782 24.8216 5.53937
1 23.368 28.1607 28.0248
1 18.9625 7.7821 10.8123
1 6.89397 27.2376 26.1758
1 6.07413 3.65025 17.9607
1 18.4813 28.4821 16.409
1 5.64234 11.5444 20.268
1 18.6888 22.1419 21.8248
1 27.0913 11.7494 22.1127
1 11.5327 20.6 5.09901
1 14.1063 26.3883 13.6098
1 15.492 7.51596 13.9225
1 5.13143 3.6286 19.1876
1 5.07399 29.3777 10.2844
1 20.7579 24.5691 18.5923
1 10.3044 3.54814 17.3127
1 0.494355 3.84888 6.15553
1 0.89419 18.067 6.62019
1 4.98288 2.43378 28.3717
1 0.946584 28.3197 15.6478
1 14.8913 23.0782 20.7655
1 15.1144 0.834559 22.3406
1 4.67048 6.68168 8.85242
1 10.342 3.32259 19.6022
1 20.561 27.8238 1.38093
1 12.4092 27.3143 1.64828
1 10.4222 12.5817 22.5556
1 4.42947 25.6844 29.2936
1 3.16024 29.8485 28.9088
1 12.5165 27.3915 11.6565
1 17.1275 2.25487 1.50932