4096
Atoms. Timestep: 620
1 17.4485 7.12418 8.58539
1 21.1394 21.4096 26.5128
1 3.54953 7.72292 9.02148
1 16.3403 7.30945 21.1269
1 2.30143 20.7305 5.5562
1 9.99168 18.5979 25.5529
1 22.5287 29.7966 7.26953
1 23.9857 2.30921 8.90796
1 14.471 1.61728 7.36958
1 22.0346 14.784 1.19987
1 17.7494 16.9874 25.7709
1 27.0959 29.5313 13.1811
1 12.1748 8.30462 19.774
1 18.0576 28.9787 26.3096
1 25.5974 23.7159 14.1357
1 6.56918 29.5581 19.7292
1 27.704 27.7545 13.7516
1 8.91645 19.979 27.4334
1 28.6856 10.9029 5.70292
1 28.5709 5.76037 19.7711
1 9.18141 25.8079 14.6341
1 10.7574 23.7472 13.1507
1 19.223 13.9793 16.2157
1 6.08653 18.3097 22.6393
1 9.0492 5.71647 10.3731
1 25.1446 9.31014 12.4656
1 20.4038 28.4646 5.45573
1 6.62258 6.5074 12.1909
1 14.7242 17.3812 5.48803
1 3.90664 19.3526 26.5546
1 9.1118 21.8228 23.9457
1 6.12139 14.0708 3.09085
1 14.7223 19.2048 15.7842
1 10.5834 12.8445 14.6886
1 4.72429 28.052 13.4219
1 9.18045 26.9491 19.1859
1 27.444 11.7641 9.94078
1 14.4603 21.952 24.2363
1 11.8103 17.449 5.52231
1 30.1309 10.4681 20.1114
1 21.2882 5.92898 16.168
1 30.3649 18.4897 8.46683
1 4.07862 16.6605 17.5392
1 19.4359 16.2142 16.0467
1 14.4778 2.99116 27.6537
1 17.6438 30.2385 20.0514
1 16.5304 4.46622 20.5322
1 13.136 7.1562 28.9077
1 7.86697 20.2121 10.8893
1 17.043 29.4925 9.89951
1 16.5447 8.00206 5.22267
1 19.3703 3.64011 19.5002
1 8.65018 17.3324 14.1125
1 13.6762 12.0472 9.56533
1 5.02854 24.3288 27.2759
1 22.3458 7.20078 11.1585
1 4.25664 6.80886 19.8434
1 9.43504 25.9662 0.638571
1 6.42149 25.6421 24.3446
1 29.6177 11.8319 23.4457
1 0.364442 6.67031 20.4502
1 4.04659 25.0746 11.5567
1 21.4331 17.6066 7.33022
1 7.70592 9.4814 0.508879
1 1.32904 1.74843 11.265
1 20.5075 22.5039 11.051
1 20.4058 18.3586 26.4806
1 23.4356 19.6928 10.3287
1 28.925 29.9834 20.5057
1 11.9366 4.42194 5.07951
1 9.04951 22.7609 29.8541
1 29.0346 29.8769 27.5155
1 2.98047 5.16372 0.336688
1 11.7978 2.48817 10.8703
1 27.8506 0.47827 11.117
1 14.2189 1.42958 22.0155
1 4.32527 2.80406 5.07949
1 1.05533 0.33682 21.6184
1 1.03335 8.27776 2.93659
1 30.0286 29.3827 19.7415
1 23.0357 9.96035 0.613771
1 19.6847 17.2152 23.1485
1 21.7795 8.35596 13.9912
1 27.7603 20.565 1.81254
1 22.0909 8.95145 7.83504
1 1.9259 26.0777 11.2865
1 25.4283 2.33051 25.8053
1 28.2674 29.4508 1.8554
1 11.4136 6.08654 20.8505
1 27.5948 12.9236 16.155
1 20.8795 28.5085 9.25503
1 6.19977 4.8186 4.62514
1 20.2364 23.7034 21.1878
1 27.7072 12.8462 13.4
1 27.1666 20.1987 4.46774
1 15.3333 19.3879 14.2811
1 25.8502 19.8723 7.52166
1 6.46148 3.28406 4.24875
1 17.2842 8.41883 15.3574
1 9.12177 24.7521 2.52604
1 8.93027 9.46303 4.6731
1 1.94376 20.3183 23.123
1 17.9349 23.5369 18.1025
1 11.3363 4.79382 28.1738
1 16.118 19.2649 16.458
1 29.2778 18.8151 1.5238
1 5.39372 8.27725 11.7207
1 13.6528 29.4362 20.8912
1 11.8555 2.12815 15.2235
1 10.3757 24.9678 30.1505
1 7.57871 11.8846 7.08797
1 14.6203 23.8636 25.5794
1 21.3927 2.9838 9.32778
1 17.0647 27.2007 4.1054
1 0.435862 13.5943 24.852
1 23.1034 16.8984 13.371
1 14.7004 28.4139 13.2038
1 0.145356 21.4255 5.22734
1 10.1057 30.2129 11.0598
1 15.6468 12.3849 8.98915
1 20.7258 2.33885 22.0209
1 25.8387 19.507 4.35935
1 23.7414 0.68177 9.21206
1 22.5995 0.700256 17.1245
1 3.31543 12.1882 3.38203
1 16.3752 16.7583 20.7125
1 0.787217 20.2471 10.3369
1 19.6237 25.3254 16.9457
1 11.4296 19.4111 19.149
1 3.40026 27.5459 13.9859
1 27.7584 20.5073 19.2545
1 11.2155 15.5663 14.7887
1 10.1508 25.4305 11.4812
1 4.02223 7.0064 1.26596
1 2.71707 22.8401 23.3314
1 23.9608 8.10405 17.8847
1 10.2533 14.2771 11.9883
1 20.211 9.81346 19.0607
1 12.9078 20.0946 21.0543
1 1.93118 23.1596 8.22598
1 16.0045 28.4097 2.84741
1 9.58985 27.1157 27.5656
1 18.6704 0.535783 5.94083
1 18.4428 25.5985 13.4286
1 22.7478 21.9899 10.8221
1 26.7097 24.9535 16.7637
1 30.2719 12.2221 13.2536
1 22.6591 9.02541 28.9857
1 23.17 29.3426 2.67932
1 16.0712 26.7042 13.7839
1 25.2941 25.7793 29.9878
1 29.8647 22.1685 2.40909
1 22.0071 11.5613 2.34499
1 21.455 1.62243 8.27214
1 4.22032 14.0029 13.2225
1 22.613 4.77915 9.27338
1 8.58709 18.4685 13.3945
1 9.81791 7.13387 26.7609
1 8.97938 25.3095 3.64302
1 29.9691 11.9089 26.8336
1 23.9606 24.1438 4.96122
1 1.87859 23.0784 19.5722
1 3.4935 21.3112 19.8114
1 12.195 4.10667 28.8663
1 18.8603 28.7241 12.5206
1 0.820757 11.2688 8.84428
1 21.8887 1.69303 3.01935
1 12.1594 14.2698 22.2097
1 19.8052 11.7208 13.9085
1 10.0544 15.7245 22.7371
1 3.59994 24.3011 27.5552
1 10.9808 4.61497 20.7843
1 13.3436 16.686 19.8998
1 26.5932 10.6184 20.9668
1 21.3705 5.75999 6.41957
1 17.9879 15.385 19.6886
1 29.5882 14.366 15.906
1 12.5103 28.9227 9.66682
1 24.324 17.8992 15.8253
1 1.5472 15.5961 8.23162
1 9.70921 8.79375 14.2722
1 20.8687 10.8277 21.1368
1 4.96923 12.9133 19.18
1 11.8423 4.93479 6.53167
1 3.30262 24.9089 9.41234
1 28.9053 6.14403 5.52877
1 23.5406 1.3424 29.0447
1 3.61701 20.1602 16.8631
1 16.473 10.743 14.6844
1 22.828 4.48954 5.15921
1 15.9589 16.255 6.79109
1 0.901836 11.7812 2.18838
1 3.42652 12.0836 17.2404
1 11.5266 17.1002 11.8237
1 19.2829 23.6792 26.3639
1 29.7544 28.7175 25.7487
1 3.88665 23.3349 14.6384
1 3.3469 6.48431 11.4905
1 5.39323 1.72273 8.52252
1 20.1498 21.2392 29.8762
1 0.46884 25.4019 25.8744
1 3.62505 0.843262 0.661525
1 20.9979 16.8997 0.291753
1 17.9779 2.87658 4.46132
1 2.48872 19.4856 8.55361
1 15.0851 9.70899 20.4795
1 27.2353 27.5517 16.8649
1 27.9515 18.6035 28.8338
1 25.8077 20.3409 22.3512
1 2.43647 6.41684 22.6935
1 19.1026 5.43512 6.00204
1 12.4562 6.97592 0.701525
1 22.0626 24.535 9.09969
1 19.8635 4.88168 12.3777
1 4.06546 17.8865 10.6443
1 5.16004 9.57405 12.5921
1 27.7806 18.9081 25.7272
1 3.93319 3.8681 21.374
1 1.4424 8.85457 5.28631
1 4.62857 8.98634 2.69265
1 15.5866 3.19891 3.40252
1 0.990185 9.80379 12.9481
1 22.7484 7.06708 22.2032
1 4.09839 22.4341 5.4475
1 20.1299 16.5202 4.90182
1 27.1359 11.8134 21.7306
1 16.9092 11.8834 7.1874
1 24.1928 1.16578 20.798
1 4.90584 16.2331 2.32721
1 26.1185 27.1022 2.58381
1 9.92578 0.964634 22.5086
1 14.9863 11.3772 9.40523
1 5.00494 13.0904 13.8531
1 5.70169 11.7986 5.69271
1 5.39508 1.89686 18.339
1 28.3238 21.6691 16.6673
1 27.8221 2.86668 6.47134
1 2.8861 5.94539 7.8184
1 16.9521 7.10815 26.8681
1 26.2635 28.4975 26.9076
1 19.3623 28.7381 16.2004
1 19.7824 8.60499 24.5046
1 27.9116 12.1124 2.37803
1 14.3793 1.35136 25.6381
1 15.2677 19.1677 8.4606
1 12.3953 16.3567 4.44495
1 4.26898 16.7276 19.223
1 17.9843 21.471 6.76245
1 20.6726 27.0643 29.2965
1 21.8396 22.3099 14.139
1 29.7436 20.0725 5.35188
1 8.34815 9.7492 10.6617
1 18.8094 15.3381 29.1999
1 5.06702 0.808645 27.6452
1 11.5015 4.44925 10.3909
1 30.0809 23.2113 22.7621
1 14.9136 5.52936 2.68019
1 8.74688 11.2559 1.98102
1 28.8943 29.8658 3.98458
1 24.9326 4.68177 12.8136
1 6.82594 8.60899 27.0552
1 9.84042 1.08696 27.1868
1 15.5536 18.9066 28.6944
1 6.5344 16.3271 28.6489
1 3.42357 11.0713 13.2995
1 17.2329 20.2601 15.7942
1 15.7044 9.65542 21.6471
1 29.928 2.14106 28.43
1 28.3427 28.0789 5.72543
1 0.957472 25.4199 9.02735
1 9.02437 7.33428 5.68866
1 14.9756 7.49478 9.23293
1 17.5607 15.4617 22.1259
1 28.9527 10.9616 1.84342
1 27.3947 21.5611 25.9157
1 9.50936 6.8275 9.38318
1 24.4915 2.46019 26.9805
1 6.61126 27.5434 16.6613
1 8.60556 20.7366 22.9978
1 9.3024 28.6791 21.654
1 17.7995 13.1022 10.6698
1 30.2705 29.9932 22.3242
1 9.34446 3.97153 3.50162
1 26.8762 25.8088 8.42922
1 29.8388 7.90526 11.7736
1 9.46738 1.69384 4.32403
1 19.4489 24.7936 23.0847
1 25.8924 18.012 4.37387
1 12.8041 24.6937 8.76111
1 13.1652 7.90338 11.0286
1 18.8902 12.4775 11.4764
1 16.5918 17.4609 14.7295
1 1.34123 18.7517 2.47925
1 17.0763 14.6741 13.2311
1 27.0059 16.881 22.5516
1 29.8683 13.3587 12.9201
1 9.86995 15.5468 24.277
1 7.83116 25.0017 0.773273
1 9.54327 21.3271 15.5589
1 23.7245 21.3479 7.35429
1 6.62927 16.5471 18.1467
1 9.83481 10.7552 20.5108
1 24.5512 15.2338 1.11112
1 4.6117 15.304 19.4964
1 5.27749 15.2265 16.0838
1 0.510348 27.4424 8.01473
1 8.83835 1.09556 23.372
1 2.54503 27.9044 30.0146
1 5.32807 20.281 24.1032
1 16.8992 0.542978 16.2611
1 22.9421 18.2769 15.8438
1 28.2338 2.65527 2.69846
1 14.5625 28.1254 22.826
1 27.6633 19.1386 13.5216
1 22.7702 9.28784 13.1802
1 10.2768 3.08029 24.166
1 15.7796 29.2175 18.3922
1 16.7105 14.8506 17.387
1 23.3933 23.988 17.3697
1 24.6041 13.8484 21.7744
1 24.2996 16.5232 13.0816
1 22.3776 3.46182 12.8037
1 3.98071 11.788 0.618673
1 5.15115 26.1783 18.1697
1 10.6769 21.5375 16.0134
1 16.5035 17.8904 16.2078
1 1.06778 16.6203 16.8709
1 11.2095 15.7187 27.7936
1 5.68449 5.15331 29.4967
1 13.4177 9.98686 28.8761
1 17.0304 19.8912 11.521
1 14.0903 1.04478 18.6373
1 14.7425 0.812262 17.2226
1 27.7154 17.0218 1.14338
1 11.3908 3.78641 2.34571
1 4.88247 25.0314 2.19414
1 12.3993 10.1186 6.94226
1 12.526 9.63493 26.6082
1 16.382 16.2808 4.33425
1 0.433643 24.272 2.44697
1 2.57032 1.72515 17.7741
1 14.4239 23.5084 0.658347
1 24.123 25.7119 10.5862
1 30.3408 2.78813 13.3368
1 0.957518 1.65169 21.4214
1 2.94051 5.13302 18.5529
1 2.28209 13.7618 29.6689
1 13.2614 27.1822 22.8487
1 1.71618 29.5366 4.21274
1 30.077 13.64 7.81483
1 14.0942 5.88841 4.99842
1 16.7432 18.6575 27.5833
1 1.315 15.9816 22.9686
1 11.797 6.26394 23.3923
1 9.81892 3.17435 7.13088
1 11.8689 7.83101 11.7789
1 29.2261 29.1265 12.0439
1 22.949 15.1289 24.8364
1 10.2557 28.992 29.4279
1 21.2408 2.30113 4.88659
1 7.45526 7.69687 20.3501
1 26.2062 22.4416 2.05113
1 20.6156 22.5769 13.9437
1 15.553 24.5762 29.6321
1 15.4855 15.3783 20.7123
1 12.3067 24.708 26.7714
1 4.25615 17.6998 29.1963
1 20.212 26.6498 1.60025
1 12.6612 5.04327 18.0966
1 13.9457 28.131 6.47672
1 9.11018 5.91922 19.2194
1 19.1104 23.0432 3.49495
1 6.13424 1.06578 13.3961
1 26.8744 8.79086 25.3666
1 10.3046 14.873 10.3504
1 11.8872 28.2323 2.22114
1 23.3706 15.45 16.0749
1 23.5751 18.7748 21.3697
1 16.1394 8.25406 8.89266
1 11.9215 20.7921 25.2519
1 17.2065 28.8656 12.8076
1 12.341 6.1712 21.9053
1 2.05653 7.31481 29.7155
1 27.2174 27.9627 28.1164
1 21.6342 27.8616 11.6411
1 10.8227 4.89214 26.8332
1 24.3247 4.79129 3.45248
1 6.67765 26.0469 25.5517
1 7.23517 9.9601 18.7971
1 13.2816 29.1388 19.4466
1 12.4244 21.6839 18.6986
1 6.48913 12.5928 19.3615
1 21.8094 5.99673 17.5536
1 17.691 25.3607 0.85589
1 9.68505 10.0477 10.8168
1 7.24773 25.1102 9.2504
1 21.135 20.3724 0.163182
1 24.8957 28.8726 4.93954
1 20.4729 25.1506 1.04412
1 16.3029 18.9149 19.192
1 6.71303 6.16289 26.2123
1 15.3103 6.47129 0.455749
1 15.4222 27.4022 0.810524
1 3.48014 7.94437 13.5019
1 28.9483 14.9007 4.18287
1 0.282592 30.3175 23.7018
1 28.7874 1.89011 15.96
1 2.25721 28.8325 14.2405
1 22.7065 10.3678 13.9122
1 11.9346 13.3348 17.5414
1 10.9228 17.3988 9.19746
1 11.7945 14.7298 26.8757
1 28.5025 12.3429 21.0378
1 16.6731 6.73468 28.1716
1 22.1006 14.1522 7.46672
1 25.4481 26.7927 21.8209
1 11.5204 9.00564 1.40064
1 6.73071 2.17938 25.5652
1 1.08341 8.45817 21.5651
1 25.3896 9.24454 23.4218
1 11.4775 21.9245 10.5509
1 8.48243 3.11667 2.65296
1 16.0866 26.5064 8.11166
1 0.19482 5.15938 26.2327
1 17.0471 18.3449 8.54226
1 29.3301 26.9035 7.89153
1 9.44564 14.1057 24.489
1 10.1854 24.7531 25.2894
1 20.3496 29.5841 14.0677
1 11.2632 24.7716 12.0828
1 10.9251 23.918 0.916223
1 18.4597 16.0924 0.447813
1 22.6397 22.0354 1.29792
1 29.0249 10.4452 3.12271
1 13.1545 25.2558 6.52264
1 7.26941 4.96734 21.662
1 13.237 15.3142 15.2365
1 10.897 10.7347 17.2825
1 6.48492 13.0635 15.9589
1 3.06467 2.68081 18.431
1 5.08088 20.0886 14.3168
1 21.9735 11.2866 17.167
1 3.56025 16.0234 1.6368
1 9.48372 21.9389 12.4449
1 14.1427 17.9486 6.62953
1 19.4974 11.1959 16.6801
1 26.3924 13.679 19.0479
1 4.22906 4.10745 5.32334
1 8.22097 10.7076 7.07323
1 15.1525 27.7764 2.19824
1 15.6973 27.9083 16.2314
1 24.8537 7.33994 26.7569
1 15.1486 2.62556 22.2788
1 8.62706 1.70497 3.15748
1 5.04159 13.1731 10.8434
1 11.9326 13.1887 15.0378
1 13.8591 24.8116 3.4812
1 12.6217 11.2234 4.71351
1 23.1074 1.39106 22.6019
1 4.63127 2.86395 19.1439
1 12.6347 2.73048 7.31846
1 3.93043 5.29875 19.4312
1 24.9707 13.3403 28.6982
1 19.4278 4.13778 0.344102
1 12.8181 11.1184 29.4688
1 28.2871 15.6912 10.6868
1 20.3979 25.7779 29.1665
1 26.1162 27.64 1.27688
1 11.8565 21.7557 11.8884
1 7.92174 25.8671 4.2103
1 30.3545 20.791 2.47078
1 18.8469 25.0595 9.14757
1 13.1735 7.45262 27.6166
1 20.2371 15.5325 18.2401
1 18.2892 14.3367 10.3762
1 16.0179 13.5031 9.63595
1 5.73974 21.3065 16.7634
1 26.9769 15.7538 13.0832
1 28.594 10.2765 7.98583
1 13.3556 5.69859 11.9352
1 10.2812 8.15816 21.8687
1 25.6245 1.6253 16.9932
1 25.9728 9.89544 28.7315
1 14.5283 26.9329 20.8846
1 4.08169 0.324763 17.1537
1 16.3079 19.9436 3.76743
1 16.2921 21.3151 20.781
1 26.3495 16.2429 19.4441
1 16.1543 5.4783 18.4894
1 19.4459 15.3816 13.0175
1 1.40843 17.8358 13.7928
1 29.4229 26.0855 5.35057
1 7.47848 22.4104 14.9438
1 10.1809 18.1338 20.4614
1 10.3187 27.9415 30.1833
1 10.6558 1.01117 3.82229
1 10.2692 30.2859 5.62144
1 21.9284 26.7557 10.5374
1 21.586 12.2171 13.0349
1 6.45649 6.12224 2.14463
1 22.9392 8.66398 27.5041
1 19.6205 9.42923 11.8014
1 22.338 26.8431 19.7565
1 20.9847 29.9333 24.3313
1 21.1901 16.6772 10.4513
1 18.1848 21.5937 9.855
1 20.7776 10.7691 1.65517
1 3.03437 4.05666 11.4952
1 2.15209 16.4272 2.17609
1 22.7129 3.7552 23.0209
1 29.1968 14.6911 28.4874
1 17.539 2.77715 10.2628
1 14.6131 22.3503 1.94813
1 25.7793 29.4063 22.3074
1 19.5985 4.6511 27.0532
1 22.1469 12.1679 3.57982
1 17.9902 22.0057 11.0952
1 8.77884 26.3642 26.4037
1 1.56985 27.9914 16.7915
1 6.28365 1.63049 24.3144
1 5.91411 26.7149 5.90091
1 12.32 12.768 19.8286
1 1.87974 21.779 23.1039
1 3.52051 27.0524 2.76475
1 18.8429 20.6134 21.0488
1 6.94952 1.89485 19.2373
1 30.2424 2.37287 15.8471
1 25.5535 10.7841 1.8999
1 23.1425 1.32506 3.10496
1 16.8526 7.54775 24.582
1 22.279 6.27546 27.1336
1 16.5096 26.479 26.1217
1 19.9431 1.8758 20.436
1 9.35627 26.1791 13.3795
1 2.26761 9.10712 24.3608
1 18.135 23.3661 23.9748
1 6.79606 10.2693 14.2985
1 24.1786 17.1324 24.8599
1 22.8947 1.93245 15.8673
1 5.7061 12.9367 5.14221
1 4.98164 28.4832 24.8003
1 12.4461 12.5917 16.1509
1 1.49201 7.94241 7.27559
1 22.0521 6.52973 3.68448
1 14.1185 6.01483 20.3033
1 15.847 1.67855 3.22066
1 17.1873 21.3676 13.5767
1 24.1781 22.1893 10.7458
1 18.1049 1.24938 18.9882
1 21.5929 8.99173 10.6609
1 3.49523 18.0829 26.2211
1 13.974 18.6515 24.3403
1 24.5717 21.3783 4.65595
1 19.1928 27.4963 27.6623
1 2.41202 11.2188 2.32415
1 20.7388 30.1036 12.8119
1 7.95037 17.8465 9.51577
1 24.1611 9.43282 4.07743
1 23.0248 16.5093 24.8126
1 23.9267 5.89505 2.16755
1 24.9803 19.9807 16.3284
1 4.20087 14.8668 4.91579
1 29.2128 23.7057 29.0165
1 3.21253 19.061 10.8749
1 10.0797 10.2881 3.72584
1 1.35702 6.31388 28.2274
1 8.82071 11.7559 18.4413
1 6.6977 0.868535 1.64179
1 26.5358 30.407 27.1859
1 18.3198 7.55897 3.89405
1 3.55457 21.0062 5.78167
1 12.1501 1.01423 17.1338
1 29.5213 15.5657 25.7329
1 1.41704 11.5861 18.5715
1 11.1771 11.2232 28.4477
1 13.4341 24.0164 11.2877
1 15.9703 23.4052 14.3329
1 9.4895 24.7439 9.77268
1 25.7797 27.9567 21.25
1 23.8682 30.0289 17.4321
1 10.8388 16.1541 25.0768
1 12.5752 20.9301 16.3429
1 1.80666 2.34117 2.40295
1 0.238536 22.1455 16.2674
1 23.284 6.94492 29.9001
1 29.0821 1.31224 18.7473
1 9.61376 22.3848 19.5652
1 8.95421 22.1484 9.3789
1 29.8178 19.6912 10.9142
1 20.1682 8.3788 2.42201
1 27.9714 18.3435 1.3649
1 1.31807 6.39401 16.8193
1 7.02298 2.41585 29.0759
1 9.69369 16.7697 4.45131
1 13.4633 26.8847 19.6678
1 6.7783 15.0067 24.3214
1 24.2495 4.29013 19.3176
1 9.09149 1.75993 17.8772
1 10.8012 21.3378 3.66
1 16.9798 22.7294 19.0277
1 3.3734 5.03143 27.1843
1 23.2192 26.8121 10.8201
1 18.9856 27.7603 17.8967
1 2.00408 17.8323 25.6934
1 4.20244 12.328 26.5304
1 21.6697 28.1796 29.4142
1 0.81234 12.1535 22.429
1 15.4465 20.949 18.195
1 7.72593 7.90372 5.87601
1 22.5336 10.6326 22.6099
1 28.5645 19.6311 4.72741
1 22.1345 20.9941 22.2274
1 13.0239 29.2832 22.2769
1 22.3159 26.2063 3.73243
1 12.5934 17.1114 8.04457
1 17.0822 23.0718 21.898
1 12.5593 2.45589 24.2129
1 9.29705 20.9572 14.1848
1 27.1437 18.3852 22.5183
1 13.4315 21.8315 26.6158
1 29.2658 22.1831 19.616
1 28.383 29.2313 10.9396
1 7.31116 3.4456 21.6849
1 14.8679 8.07746 15.7576
1 15.9475 5.31346 10.9234
1 19.0263 2.37494 9.49309
1 8.13877 19.6335 7.88276
1 25.1861 3.53498 12.1748
1 2.27918 21.2258 2.4338
1 14.4282 7.96493 2.07919
1 24.0919 28.4798 11.2756
1 8.44182 22.5449 4.46924
1 17.7399 18.1605 18.9358
1 28.1163 7.35027 7.68227
1 18.5028 7.7813 10.5816
1 10.2979 7.1669 1.96721
1 3.87144 28.4662 9.90814
1 27.8936 4.92734 26.5998
1 12.7451 11.6915 10.8987
1 4.93628 2.82232 11.845
1 22.1529 13.1108 23.9474
1 19.9494 17.8594 8.09355
1 26.164 5.76529 10.8135
1 21.3362 12.736 7.77157
1 26.4914 18.9963 28.5126
1 23.1712 17.0723 18.3692
1 1.46268 7.05486 25.7894
1 14.0563 26.3495 17.1782
1 10.5778 25.504 9.88755
1 26.5174 29.0162 7.96697
1 14.6425 21.0573 1.18529
1 15.6591 6.07616 3.80795
1 10.2084 19.7121 12.1534
1 23.7018 24.3551 10.9603
1 14.9679 8.75416 13.3872
1 20.4433 10.0075 24.8144
1 13.6544 6.08962 21.619
1 23.4464 30.1363 3.7227
1 17.3365 11.2078 3.00677
1 7.16042 14.6779 2.38201
1 0.418773 28.3857 24.8677
1 15.2191 0.429892 7.00686
1 22.3401 1.31056 11.3867
1 8.04556 10.874 0.698479
1 5.3687 22.6965 5.75577
1 5.06228 22.0622 29.9408
1 10.6683 29.1245 21.309
1 17.9827 23.5101 13.0034
1 29.1182 0.889953 7.71948
1 12.6015 7.61185 15.9325
1 19.5541 28.355 3.24589
1 12.9189 23.4906 5.5126
1 7.17601 7.79345 22.2987
1 4.30907 18.8808 16.6059
1 30.3571 15.9555 8.00224
1 12.3789 8.32605 0.648752
1 24.9816 11.9784 28.0278
1 0.372613 10.5937 18.7662
1 1.72495 27.9955 1.01162
1 10.0882 10.5524 22.0692
1 0.584833 20.7226 8.0149
1 5.31932 19.426 11.6965
1 19.819 9.95442 17.5222
1 1.9164 8.28639 12.9386
1 16.8189 4.03447 17.0717
1 22.8073 16.069 3.89498
1 10.1352 23.9875 2.59695
1 28.2843 4.29479 29.1532
1 13.0961 6.81002 5.38279
1 22.075 8.2155 25.3745
1 19.6927 3.92845 11.3827
1 8.37656 18.9934 10.3535
1 2.86096 13.485 2.94159
1 19.8803 20.4551 13.7762
1 15.013 29.1696 15.8145
1 6.29426 22.6467 30.0007
1 7.46375 5.05525 2.07959
1 19.1394 18.8034 18.1942
1 10.9944 28.5967 24.6239
1 7.40826 20.9663 26.6589
1 8.34004 24.2138 12.6551
1 21.4896 3.50467 27.7545
1 1.86914 20.7206 8.16059
1 19.101 24.4822 21.1007
1 12.2272 2.82386 26.8826
1 2.59323 6.23051 17.5512
1 7.59831 20.4373 2.0838
1 11.5684 16.0526 8.6554
1 23.7937 28.7592 17.762
1 4.63565 9.74465 29.7002
1 13.3773 0.406328 16.5719
1 28.9323 1.05874 20.0554
1 22.024 20.6698 1.36712
1 25.3807 2.93779 0.22638
1 8.65428 5.58696 5.23418
1 17.948 30.1461 29.468
1 11.2783 0.691998 16.1606
1 28.2502 10.0148 23.9803
1 7.15465 5.78157 4.60354
1 17.0205 29.1562 28.7287
1 29.6492 4.85765 9.46397
1 6.02435 8.45765 2.68772
1 10.0492 11.5735 10.9455
1 18.6328 23.9564 28.6445
1 23.9679 9.1147 20.4788
1 11.708 6.84464 4.80437
1 23.0219 5.0123 14.1514
1 20.2167 22.7112 7.65828
1 11.7443 14.2588 24.6094
1 28.0508 7.15938 17.5084
1 19.9674 16.2271 10.228
1 30.1182 9.49596 0.36749
1 15.1255 17.4167 0.580685
1 3.23374 16.7779 10.6272
1 19.5221 9.01532 8.8753
1 7.90356 8.65362 16.8165
1 28.4355 4.91301 5.95056
1 22.7047 8.17224 18.0983
1 5.28749 14.5615 25.943
1 9.31711 4.47476 10.9232
1 2.69965 2.37689 13.0647
1 2.29125 11.4228 27.9599
1 22.9568 12.6234 27.4906
1 3.94583 13.1417 12.0777
1 8.50271 15.8151 22.0446
1 29.4731 7.16681 17.4335
1 29.6463 4.72058 11.958
1 15.1932 26.8809 4.42176
1 28.9701 5.74327 0.822948
1 14.6022 16.7871 19.0158
1 27.9377 1.58016 3.6075
1 0.247866 6.71229 8.48129
1 7.23158 12.1042 18.1115
1 18.8977 6.9491 14.4922
1 19.4236 13.0539 24.4955
1 23.8999 1.47801 1.41072
1 24.8158 19.8472 10.3951
1 28.345 17.3808 7.66482
1 21.9349 25.273 23.4442
1 24.6136 3.62398 21.5208
1 2.27597 9.38224 17.1084
1 10.2299 2.65878 18.4416
1 16.1441 9.29976 9.79878
1 30.0799 12.0232 16.275
1 9.74566 18.7222 1.64055
1 9.21168 15.0765 17.9278
1 20.4803 18.8728 16.3168
1 15.2893 10.8144 15.5513
1 16.5952 23.6021 6.09731
1 24.9817 5.98028 12.2719
1 3.81539 3.40482 25.4925
1 23.1471 9.16798 16.4015
1 16.2998 7.78147 17.4519
1 25.8476 7.98458 15.2258
1 2.8903 15.4439 5.00103
1 16.803 11.0859 17.3026
1 20.9643 16.3115 21.1907
1 14.7956 12.885 5.11549
1 17.1301 25.6915 11.5379
1 27.49 14.4174 25.6141
1 6.48294 25.7163 13.606
1 12.26 17.2465 30.1328
1 25.6374 28.2239 8.77807
1 1.31481 6.1127 5.56594
1 20.268 13.4335 15.9333
1 13.7425 26.1042 2.73236
1 5.73094 15.3539 29.2637
1 9.47825 2.04261 29.4165
1 0.945994 29.5136 20.425
1 2.61424 4.37312 28.1962
1 28.5778 10.9922 21.552
1 1.60919 10.9808 11.072
1 6.62059 17.9845 9.43191
1 21.6722 20.6194 25.0726
1 0.541107 26.5774 2.37656
1 22.1536 5.0251 20.4576
1 9.1556 10.1788 5.99889
1 1.3872 4.15875 26.0904
1 2.37657 26.3615 3.53017
1 10.7699 27.3212 8.25231
1 17.9344 14.8215 8.87212
1 27.8071 4.92473 15.2714
1 6.78104 26.9328 12.6225
1 18.5023 27.2641 28.8129
1 21.9127 8.80112 0.766901
1 19.32 21.9905 20.8973
1 12.587 29.5884 13.6511
1 21.0196 5.38226 21.3327
1 2.94883 20.5023 26.4123
1 10.8871 18.9136 9.99406
1 20.7079 19.2229 3.08303
1 11.0504 12.7675 1.30042
1 9.27883 13.5316 5.76435
1 21.3543 10.0813 0.590802
1 26.8256 23.5383 16.7346
1 6.09719 22.1 6.88664
1 5.0321 7.55455 30.3983
1 25.2638 29.8117 29.2718
1 17.4081 1.37469 24.5638
1 0.516374 8.55208 29.9775
1 5.17871 9.13893 19.9435
1 25.8958 8.2283 1.32364
1 7.77164 21.4079 14.0617
1 3.13048 12.8727 24.6011
1 25.3133 30.3532 28.0212
1 30.0511 9.44967 27.6994
1 29.1307 27.5731 22.4554
1 16.4393 3.88257 4.82489
1 29.6376 26.2322 16.0177
1 5.04247 20.0438 8.78614
1 25.0277 7.36426 3.79094
1 23.2135 21.8325 4.43736
1 14.5697 12.078 13.0031
1 2.6112 10.211 3.23319
1 20.6866 13.7741 27.0103
1 6.60459 29.6374 28.1959
1 11.8515 28.1649 17.9427
1 15.5857 10.2985 24.885
1 21.4698 21.8882 24.2549
1 10.2367 17.8219 28.5045
1 3.73508 28.6743 29.98
1 10.0106 29.1234 19.2204
1 2.11729 29.939 19.3563
1 6.86072 12.0172 20.7152
1 12.0209 9.95449 23.4994
1 12.0703 10.4547 1.64925
1 21.1396 3.07616 13.7301
1 4.85752 24.8241 9.51022
1 6.74901 29.8229 6.31389
1 5.50439 10.2603 7.74968
1 11.1172 19.8111 6.05883
1 14.828 20.85 14.2881
1 17.4503 17.2274 18.1184
1 27.1243 19.0772 10.7626
1 6.65494 6.99345 9.76675
1 7.60346 16.9637 26.2786
1 1.18339 11.133 29.0985
1 6.33357 28.385 14.7013
1 20.2049 17.7537 13.2744
1 13.9065 16.8378 10.409
1 26.3064 19.7529 13.6564
1 18.5619 9.11897 9.93215
1 25.2849 9.14051 20.1127
1 9.15638 5.55728 24.9402
1 25.7119 19.1793 1.39795
1 9.52952 24.4195 22.9958
1 23.3214 16.1342 21.9393
1 26.4779 24.3751 5.20128
1 5.0925 21.8052 26.5825
1 26.83 5.05803 27.7545
1 6.88685 22.8104 18.789
1 15.5263 7.5395 12.7727
1 4.21955 15.4546 25.5563
1 26.1996 1.85928 0.427994
1 26.9195 21.521 5.22456
1 2.08617 20.4449 16.7582
1 30.3419 18.5306 13.7728
1 14.39 16.6383 2.82498
1 20.6267 2.21213 16.2098
1 16.8843 21.3608 11.8784
1 6.0184 15.0544 9.38947
1 27.3523 27.9845 21.0847
1 18.4294 17.3583 16.1423
1 1.95033 22.9969 5.34692
1 12.3018 13.38 7.75595
1 28.9131 30.026 14.3028
1 2.15976 9.58503 15.6801
1 14.4625 23.9569 12.256
1 16.9404 21.3696 24.5463
1 1.30232 19.1053 25.8474
1 23.1365 6.55602 19.9193
1 25.6804 9.43557 2.0754
1 14.6963 10.5325 18.0779
1 21.6997 16.0668 3.01094
1 24.6074 24.2033 17.0309
1 25.9733 11.2254 7.26877
1 7.53741 26.7968 7.66028
1 23.7737 26.9436 23.4074
1 23.6919 9.6709 29.8207
1 26.1795 11.2404 28.3237
1 26.0154 13.8634 7.36597
1 30.2453 17.4575 10.9623
1 10.1023 20.927 29.6438
1 26.6934 5.56391 16.3
1 10.434 9.24467 25.3155
1 10.1883 11.6342 29.5156
1 12.7524 22.2197 24.0376
1 29.4824 5.50281 13.1335
1 25.8336 16.2202 22.5126
1 4.66343 6.74723 29.1768
1 25.8827 3.6268 15.171
1 6.51259 7.85816 28.0599
1 9.36746 15.9991 13.494
1 3.24559 19.9149 23.4443
1 13.4291 16.8448 21.2548
1 22.1545 0.308699 20.1791
1 25.597 8.50906 24.7586
1 23.2303 12.1959 24.8091
1 11.692 8.86993 15.9722
1 14.9304 1.16256 30.3672
1 23.2127 19.6648 1.30374
1 9.96821 25.9582 25.5397
1 18.0374 30.2698 17.1365
1 23.9059 22.0677 26.2113
1 7.33005 22.8628 7.61305
1 0.805797 28.44 6.86731
1 2.7482 19.4965 29.7078
1 24.7088 30.0769 6.84461
1 27.9137 24.3293 13.6856
1 4.73865 24.8363 17.9581
1 13.8821 12.7342 15.8461
1 23.2858 17.3493 28.427
1 16.429 22.3324 0.312294
1 10.255 26.5282 20.11
1 25.7777 22.5618 22.7997
1 19.3702 23.3205 29.6433
1 18.3694 25.1245 29.8291
1 18.1233 23.5007 25.4505
1 19.248 3.17276 27.1288
1 11.2371 14.4066 3.22431
1 28.2279 10.6052 26.6396
1 5.11864 2.23929 15.4295
1 2.57145 2.08359 8.27241
1 8.34571 16.3161 4.14683
1 4.15351 2.07774 25.9414
1 27.7446 3.77728 25.9111
1 24.391 11.5099 19.5709
1 19.4567 19.7111 2.66643
1 9.13982 8.32803 18.9494
1 8.12526 12.953 9.26122
1 16.8072 29.5007 27.2645
1 30.2703 28.5331 22.4268
1 22.9709 8.09926 15.4154
1 2.57859 15.3692 25.9141
1 27.3471 0.630414 9.53987
1 26.4776 2.52984 23.6626
1 11.0583 8.69195 24.0828
1 22.5037 20.5374 4.26631
1 0.343428 22.4126 10.7131
1 26.3698 5.95079 1.84023
1 1.30964 2.40186 20.2155
1 8.09736 30.278 12.6007
1 9.78639 25.7357 21.1346
1 29.5556 10.5038 26.8253
1 14.8076 13.6367 15.8095
1 25.2994 21.8701 17.647
1 19.0956 4.89716 19.7862
1 14.4873 13.4456 6.28739
1 20.7805 10.1555 11.1163
1 5.21846 4.13307 19.0408
1 6.53817 25.5771 1.29209
1 7.43318 3.82825 8.15
1 1.73976 1.5925 28.7151
1 12.757 3.46471 10.7032
1 3.53587 8.0717 26.7829
1 4.00821 13.0456 16.3879
1 11.4322 8.62974 21.7912
1 13.354 20.5429 26.3283
1 16.1628 27.0652 28.5127
1 1.97061 13.0429 0.524318
1 27.074 23.0979 19.5983
1 6.63132 11.1739 28.948
1 2.31762 0.353466 29.0583
1 5.51606 15.3589 7.98312
1 9.90298 9.44869 6.92407
1 14.8075 11.1478 20.2247
1 20.1565 12.0784 25.5115
1 28.56 0.533209 16.5666
1 30.1756 16.9261 16.4894
1 12.5325 25.5322 7.68812
1 19.4957 23.8136 17.0819
1 1.55877 23.3012 26.34
1 5.10704 22.2025 7.60379
1 17.8543 30.37 21.6986
1 21.2244 10.0764 29.3513
1 26.9011 29.6126 30.1687
1 0.163394 29.2759 29.6763
1 25.81 8.66193 22.3864
1 25.2615 28.4408 19.8212
1 14.956 12.4922 24.2792
1 11.7653 14.0167 4.25202
1 26.7061 11.7413 15.8861
1 13.4298 23.9709 18.7817
1 11.7639 5.24545 25.9308
1 10.1584 3.89954 15.3947
1 16.2588 28.4038 4.12906
1 20.101 20.5382 7.60262
1 14.4529 16.3732 23.2324
1 30.1536 16.0661 28.8021
1 10.6621 15.2898 7.52293
1 28.6626 3.95808 7.30287
1 22.9037 27.6335 29.311
1 24.2052 2.53266 29.5891
1 25.4576 7.25834 22.4575
1 25.8518 14.4487 28.5704
1 2.72212 28.3716 19.2232
1 1.76704 3.63326 5.25693
1 17.2925 14.186 23.9452
1 2.12279 0.175962 3.29704
1 7.28685 1.78099 11.3588
1 6.54661 23.362 8.53368
1 8.30375 26.2384 5.56695
1 10.894 11.5067 27.0525
1 24.7649 14.7208 4.31181
1 8.46151 4.08608 28.9893
1 6.0704 15.7274 4.81805
1 27.7614 3.18264 12.8467
1 8.69778 5.05138 6.4825
1 0.332637 12.0643 3.57671
1 21.1131 24.6172 21.1707
1 13.9387 1.02943 15.2419
1 11.3188 9.2076 3.72002
1 29.5986 24.9365 2.71309
1 25.5922 1.35607 20.6727
1 22.9263 22.634 17.011
1 8.42756 21.6934 7.82898
1 0.765972 23.5294 11.3107
1 22.7314 24.6802 1.54118
1 1.62075 14.0719 3.46166
1 23.597 28.0684 28.113
1 12.2683 24.4569 15.3306
1 28.8428 20.2858 13.6544
1 10.8961 18.8498 3.70174
1 5.07724 4.23352 7.56599
1 3.36526 27.7561 27.7795
1 3.42235 14.9179 29.6344
1 10.1061 9.17951 1.5492
1 21.774 11.6328 21.94
1 17.5257 1.76796 7.85029
1 26.9464 1.16889 23.5637
1 7.12503 26.3073 10.1653
1 12.4291 28.3497 16.5381
1 28.8271 20.3724 22.8688
1 18.7422 0.642899 14.3973
1 12.8459 29.4205 28.8596
1 7.27534 14.3002 23.1834
1 11.2053 5.67693 4.30345
1 9.43929 6.53892 2.96666
1 23.5369 10.4384 10.309
1 24.5861 5.02184 23.6984
1 23.2541 24.9367 28.9063
1 19.5134 16.2889 8.49775
1 20.111 3.02464 5.40505
1 7.46978 28.5107 20.2733
1 4.52768 3.04875 28.4585
1 5.26053 15.0915 3.46357
1 3.23421 15.9105 27.3726
1 27.1223 6.28782 12.9555
1 15.8751 14.9206 7.60774
1 4.21092 20.9802 23.4305
1 10.1792 22.9886 1.69935
1 11.6825 20.105 20.7597
1 28.0009 3.94428 2.53299
1 17.7729 8.0912 18.0314
1 29.5501 25.7323 19.6175
1 7.48536 9.90831 27.0811
1 12.1873 27.0211 28.4027
1 10.0767 16.9137 26.0326
1 23.0293 19.0514 23.6786
1 27.5718 16.4156 28.7895
1 22.8886 26.1412 1.12392
1 26.759 23.0387 29.1968
1 26.3984 13.1437 1.25849
1 17.7292 16.3245 20.8725
1 21.1925 8.71476 22.2604
1 13.5496 1.59121 30.1421
1 4.84056 4.56625 23.578
1 0.99124 8.6432 17.3538
1 0.418456 7.44388 1.88094
1 28.0156 7.12024 10.2347
1 30.0892 3.90309 1.79517
1 0.628371 25.8263 16.7391
1 9.91427 21.3382 10.1893
1 7.23558 15.0491 21.9841
1 21.2207 26.1268 25.4267
1 26.6311 6.26118 28.4935
1 14.5207 6.07109 26.09
1 4.39282 19.6405 29.8899
1 14.3853 3.56149 8.90578
1 19.911 1.92673 24.6633
1 5.68888 21.0709 10.0634
1 9.56015 24.3806 27.8915
1 24.0041 7.50497 7.15542
1 12.5473 10.2593 10.6975
1 0.236262 10.0297 10.923
1 23.4313 27.9383 15.1419
1 27.1099 15.1606 19.0241
1 10.7902 2.68365 6.59796
1 25.8332 29.0948 15.5058
1 7.94308 29.0224 28.6005
1 7.09924 11.8562 3.59261
1 10.6207 26.9712 11.7412
1 7.95502 14.3813 9.77948
1 2.88231 17.1243 19.8652
1 9.16835 7.39769 23.8014
1 16.0246 14.1161 10.9457
1 27.3586 11.8793 28.7242
1 29.7676 1.98726 4.62377
1 11.6511 10.1008 9.54777
1 28.3769 29.7364 15.5433
1 6.96876 19.5552 20.5953
1 6.00603 18.292 27.3071
1 11.3542 11.6887 2.61799
1 10.7554 9.11969 17.0138
1 28.1686 3.59399 24.5426
1 2.77677 25.9709 4.85755
1 3.6761 23.0633 12.451
1 21.9067 17.1249 24.2655
1 19.2557 7.71702 25.7686
1 17.732 26.7866 1.5219
1 30.2772 23.5625 16.198
1 21.6087 22.554 7.81059
1 16.6082 24.0335 2.27083
1 21.601 18.4961 23.7832
1 13.9193 9.522 12.6515
1 3.1922 4.02109 23.9914
1 12.8493 6.05016 19.0228
1 13.343 0.764022 26.4008
1 4.54862 9.78823 14.8446
1 14.7952 23.1244 21.0229
1 25.6039 12.8685 25.5396
1 14.1029 17.1608 1.54613
1 11.9158 25.988 16.7444
1 15.3714 10.7497 17.0332
1 5.58436 28.9355 22.7344
1 30.0551 1.85654 8.03783
1 20.1645 23.7711 14.2486
1 11.3756 30.2402 14.7461
1 23.5069 3.17407 7.65899
1 5.52845 18.0121 11.0793
1 5.88633 28.8503 0.186592
1 22.9753 27.1243 13.8253
1 15.8803 21.8805 19.3839
1 16.336 2.9381 20.5629
1 9.55407 9.69617 8.26981
1 12.3765 2.27424 22.8164
1 15.9741 24.6658 27.6708
1 12.9067 28.1143 3.53436
1 7.93624 4.12683 27.5751
1 6.14979 25.3843 2.61851
1 3.09229 30.3679 24.7802
1 13.4333 21.6231 7.06579
1 18.6814 0.940787 28.2433
1 13.309 29.4153 3.11235