4096
Atoms. Timestep: 240
1 9.31679 10.9707 16.6377
1 17.7963 1.56382 11.4522
1 21.7477 19.1476 20.5703
1 20.2565 11.4373 13.8405
1 27.4588 3.8838 17.6739
1 9.87489 27.9512 17.8698
1 23.2883 22.8311 18.0576
1 19.9074 22.1196 1.07123
1 4.62495 6.36768 16.7101
1 10.8214 14.491 10.5482
1 9.40787 12.8667 12.5808
1 3.43492 1.55585 22.0374
1 14.5542 16.3875 7.27435
1 24.5636 30.2476 10.4055
1 30.0925 21.3256 22.3342
1 29.368 24.6489 27.5658
1 19.5257 27.5665 25.8728
1 3.60221 25.7533 12.4895
1 21.2225 28.3547 9.79573
1 21.5157 9.27909 14.5617
1 7.2147 7.15915 16.1778
1 27.703 29.625 27.4052
1 24.2616 4.27905 0.294742
1 9.35433 30.3131 16.6896
1 12.3008 13.3066 6.4326
1 0.665359 7.91321 12.45
1 20.5798 12.8458 18.4705
1 29.215 28.9427 9.54153
1 14.8655 29.8504 1.97593
1 26.4432 8.51574 16.4189
1 25.2567 16.1551 8.64989
1 2.37069 0.247633 7.62759
1 21.3081 8.13258 3.78133
1 28.5767 7.57689 11.9686
1 18.0217 5.35588 25.439
1 1.73294 7.87317 2.88506
1 17.5871 18.6021 12.3928
1 2.64446 29.2555 2.31217
1 24.8032 22.8808 5.48879
1 28.8228 8.88187 10.0058
1 2.72244 19.7777 7.2198
1 14.1978 17.7616 20.5295
1 9.3353 9.09174 5.3379
1 10.996 18.9452 29.7347
1 13.0036 18.624 24.6423
1 2.38152 11.463 18.7606
1 12.7221 26.8999 0.516818
1 11.4976 8.80245 3.91038
1 9.68208 18.5553 13.7075
1 1.0428 10.7412 29.5495
1 6.65736 14.3434 26.8432
1 20.3997 19.6461 8.43407
1 7.06073 11.1784 9.62734
1 9.28266 25.5374 9.7974
1 23.0743 3.02007 18.278
1 24.5635 10.5446 4.45825
1 28.7533 17.7175 5.56229
1 9.63266 20.9638 11.6596
1 26.2372 30.0491 21.111
1 27.9413 5.55404 29.5849
1 2.15651 3.60949 17.6893
1 16.2545 12.1573 1.44701
1 12.6613 29.7938 20.7983
1 18.7765 22.4219 6.47638
1 22.9784 10.8238 20.101
1 14.8959 21.8422 22.675
1 19.8408 25.2621 6.81717
1 26.4839 16.441 11.931
1 29.0678 7.98865 25.4611
1 6.14952 23.224 9.21759
1 28.65 14.2003 26.2643
1 3.6566 29.7036 7.46256
1 28.6284 22.5554 1.65441
1 5.07412 6.65993 4.62328
1 26.9909 17.557 9.66649
1 9.00602 6.59177 11.5897
1 26.5942 9.58194 11.0161
1 21.6834 17.8768 14.3885
1 1.07676 27.8642 8.29961
1 1.98347 6.18892 25.1263
1 11.5467 29.3564 5.47041
1 12.9085 22.3705 10.4474
1 7.24651 23.7877 28.4088
1 16.1412 28.8255 8.13805
1 16.9195 29.0634 17.1624
1 17.0051 6.98023 10.6673
1 18.6011 12.364 9.64774
1 22.8537 13.6482 21.5499
1 29.9082 3.95163 22.409
1 2.04819 1.40215 6.77754
1 4.44291 29.2388 6.37147
1 12.5776 10.9844 18.4684
1 23.266 19.5671 15.7465
1 5.377 29.406 28.4144
1 16.17 0.97466 2.96516
1 5.22198 14.62 9.06534
1 11.6728 18.9775 15.4406
1 24.9117 11.9093 15.2694
1 28.623 28.1633 27.6602
1 12.7946 20.3398 4.59161
1 29.1605 18.5489 10.0629
1 13.3043 8.61821 27.4222
1 22.584 22.8068 14.7585
1 13.5718 13.5946 15.1092
1 28.6627 9.7316 22.806
1 4.78526 8.61337 29.5529
1 24.0548 16.0454 25.4884
1 17.4678 14.5086 27.7759
1 6.16526 18.6025 12.8546
1 20.3414 18.0465 17.1112
1 26.2724 25.9843 3.47827
1 13.4581 23.5955 0.580767
1 12.0732 10.1687 25.8912
1 2.92017 12.4397 0.403526
1 10.2756 3.51617 24.4944
1 14.7167 16.2702 4.59146
1 26.2309 6.9226 28.6721
1 19.1195 26.8274 4.69739
1 12.686 14.2816 8.83231
1 14.4768 16.0569 2.08797
1 5.22865 27.8045 21.2278
1 8.51321 3.71202 18.6871
1 0.716022 18.2976 27.2362
1 11.8282 28.9462 8.96525
1 13.5736 19.5095 26.998
1 13.7304 8.53232 13.6828
1 9.79418 5.81619 0.407079
1 10.6782 0.338883 22.7528
1 20.8076 18.7268 29.7677
1 28.9073 30.1725 14.5073
1 3.63465 20.5018 6.45824
1 18.9195 29.6017 0.714306
1 16.5546 4.42174 18.8724
1 14.6437 2.07197 1.8302
1 20.1268 17.4983 12.1584
1 10.1626 0.667694 28.3293
1 2.39013 10.1297 23.3755
1 9.41409 19.5165 27.6265
1 26.1919 5.21714 5.90033
1 17.3957 25.1663 15.5118
1 19.498 17.4981 15.978
1 30.1768 23.5648 27.8472
1 15.0064 10.5317 11.4667
1 18.5372 4.17078 24.5625
1 13.749 11.8988 26.2242
1 3.26439 28.7388 25.1081
1 10.3077 23.1497 21.2998
1 11.5956 13.642 9.64864
1 12.4953 27.2896 15.7518
1 12.1517 27.2039 28.36
1 1.64302 8.45897 29.0577
1 10.8443 25.1543 29.6456
1 16.758 27.4965 21.2593
1 24.9721 4.73882 5.27698
1 17.1339 7.00548 16.9074
1 6.94472 14.289 15.6452
1 6.50985 2.69295 0.240584
1 22.1947 9.32069 27.1247
1 19.35 15.0404 15.5115
1 13.3124 3.66368 26.3379
1 14.3809 9.8756 7.66311
1 28.9621 7.81285 5.90119
1 7.49771 24.4688 21.0964
1 3.69256 12.1512 25.5679
1 23.1226 28.4259 28.6199
1 11.5483 0.657034 28.916
1 25.8353 2.66826 14.1951
1 17.2382 7.85825 28.2122
1 23.4421 10.9319 3.83657
1 2.8413 18.0162 22.0908
1 19.3158 2.13249 9.61978
1 23.8504 11.9398 2.85004
1 12.932 11.5889 1.56244
1 3.24691 6.68879 24.6013
1 21.7548 0.9109 8.81451
1 9.55456 12.4715 25.8874
1 22.823 18.4737 11.7596
1 16.9009 12.579 26.2307
1 2.96537 2.29643 1.30463
1 29.4718 23.9897 7.47968
1 4.95507 28.542 17.8214
1 27.6196 29.0984 22.938
1 22.1819 8.88796 19.3383
1 19.6376 29.9335 11.0732
1 12.2114 16.3689 23.7115
1 25.4314 7.62968 4.33932
1 27.5549 27.8555 17.8426
1 21.1299 25.3853 12.5405
1 24.0817 9.66948 5.38446
1 20.2107 3.54843 21.8798
1 20.4272 11.755 0.354256
1 10.2139 13.2013 3.83959
1 15.5656 13.5641 10.0214
1 22.7047 8.40975 1.83307
1 23.5755 20.0909 24.8738
1 3.29821 13.6076 13.3741
1 28.8038 9.34809 25.2418
1 14.6351 10.11 10.0218
1 10.5366 8.71267 13.4633
1 8.26555 18.4732 13.9635
1 16.0374 15.6045 17.146
1 27.9073 21.2982 23.8755
1 17.9129 13.2409 29.5961
1 10.3456 4.88006 28.228
1 29.8184 2.59262 29.3882
1 13.4441 4.15278 16.1276
1 23.3949 23.2827 3.295
1 15.0506 14.9645 7.72748
1 6.38017 16.3788 13.8545
1 1.3812 24.9912 0.567008
1 26.2029 11.3819 13.396
1 19.9317 21.7265 14.9701
1 3.53448 25.1718 3.6642
1 30.2428 25.696 24.2459
1 12.1506 8.65574 29.2151
1 29.216 3.54986 5.27566
1 7.59508 10.9097 12.4479
1 2.9625 14.4687 18.4474
1 16.0179 28.6431 6.02176
1 14.0327 23.0512 10.616
1 14.6284 6.13968 17.4864
1 7.85081 15.0405 27.4419
1 15.5223 20.2735 16.303
1 2.97277 9.26318 8.85486
1 5.62512 12.7477 23.8863
1 11.5783 17.6113 24.5502
1 20.9225 17.5416 27.8624
1 27.9221 20.1642 18.889
1 19.6279 9.56089 4.5314
1 2.09097 6.09764 16.2299
1 12.9631 22.2711 14.3744
1 23.2137 3.25389 7.64647
1 14.6311 29.8701 26.5502
1 19.2393 12.7109 22.0133
1 4.11839 1.55309 15.0728
1 22.2126 2.8727 5.03064
1 9.42218 27.6484 1.79476
1 9.8679 24.6812 27.7903
1 8.38382 26.6996 13.4873
1 25.2776 13.4981 27.1412
1 7.00149 26.5172 14.3657
1 28.443 8.54754 2.10569
1 22.7779 30.1468 24.3916
1 11.7789 1.43939 22.7086
1 1.20036 30.1555 18.6021
1 14.9582 12.4297 6.61941
1 23.3208 14.8644 11.9668
1 26.2025 11.5223 20.5392
1 6.77744 8.34676 8.03314
1 8.73437 27.2325 23.9384
1 7.83067 12.2 4.70108
1 5.0871 13.5929 20.8873
1 17.5859 30.3127 2.83495
1 21.7706 5.81466 29.5746
1 23.5426 5.39869 11.2091
1 19.439 28.7602 17.0357
1 1.77828 0.904399 27.9319
1 22.9236 11.3883 13.4113
1 11.6975 27.9808 13.5469
1 22.448 9.9629 13.8968
1 16.3813 11.5116 6.46577
1 27.635 13.3204 4.65991
1 21.4001 29.0197 1.16356
1 8.07072 30.1079 14.0408
1 17.2759 2.04207 7.11667
1 3.54102 3.96709 15.7397
1 10.7013 28.5195 9.7789
1 13.7779 14.2806 3.27739
1 27.1913 28.316 5.93806
1 10.7995 24.5961 1.93957
1 0.390951 13.7294 18.5002
1 4.58033 29.8783 17.1898
1 7.14164 7.33609 1.86648
1 23.565 5.08904 9.42619
1 4.76588 4.10835 27.4525
1 29.7886 10.7828 27.3715
1 10.9646 12.2225 9.40829
1 16.6653 8.19501 13.8218
1 5.87734 15.8624 0.534437
1 20.0254 21.9222 24.8385
1 7.2927 21.5937 10.9479
1 12.6446 15.6486 14.9522
1 0.378391 11.305 12.8696
1 28.2045 9.80385 14.4906
1 29.4916 8.07393 1.55716
1 28.8967 1.36202 24.3726
1 19.876 28.6506 14.0327
1 10.5008 20.6316 12.7928
1 5.30801 23.6373 13.5776
1 21.2483 21.0468 29.1892
1 0.366328 2.13514 9.16852
1 2.25699 29.6368 23.921
1 15.2992 17.7051 30.1075
1 29.2617 10.9257 19.5164
1 19.7192 0.233561 17.1205
1 0.622754 3.44134 5.64437
1 21.4592 3.70608 16.3246
1 23.5938 14.4473 22.9376
1 10.8881 23.959 3.65757
1 27.5742 10.5329 22.4255
1 0.784724 20.3687 1.06746
1 3.77372 11.3466 0.704556
1 6.20937 21.589 1.74478
1 10.9813 17.1672 25.6914
1 17.881 9.72342 26.6886
1 4.2315 20.7186 16.6058
1 29.1653 19.3205 13.0025
1 14.4755 15.4753 22.9635
1 24.0076 27.4149 28.5789
1 27.9366 10.441 3.07354
1 20.4324 20.8332 16.8685
1 26.6553 17.0416 4.01266
1 2.51784 2.81537 10.2686
1 7.43539 23.045 6.67861
1 25.504 14.5624 12.2057
1 23.2204 1.84608 25.6177
1 11.7804 29.8137 15.979
1 14.26 11.7177 11.978
1 14.9253 24.4762 20.3261
1 2.78918 23.5013 8.7842
1 12.9384 18.912 14.4141
1 12.3778 12.5215 13.1995
1 14.0191 13.5844 21.0977
1 5.76334 26.5587 6.03924
1 11.4755 19.882 10.7036
1 22.2501 16.2787 5.75523
1 1.81588 13.0965 1.07904
1 11.6364 12.2342 6.75941
1 26.3917 26.2793 13.6904
1 26.1141 14.3212 6.68236
1 24.6266 22.4833 4.05411
1 27.3633 29.8405 5.63159
1 4.76947 12.6855 29.1207
1 14.7168 11.0705 20.6466
1 19.1964 14.7207 10.7558
1 25.1027 25.7179 1.4162
1 26.3943 24.6975 22.0718
1 29.0399 26.4981 5.99345
1 9.13655 3.2361 0.397666
1 5.32107 12.3946 27.8308
1 10.2928 30.3029 24.5766
1 13.8654 23.2 25.5796
1 12.9061 22.8211 17.5494
1 22.9885 30.2902 12.5783
1 11.1159 2.09588 26.5221
1 23.9474 27.1542 13.5199
1 27.3739 14.9279 7.01708
1 13.3455 20.0481 13.83
1 29.1039 14.623 28.5367
1 29.8916 20.5775 23.5421
1 27.0215 3.20693 28.3186
1 7.6916 25.1607 16.2896
1 3.91795 5.92293 10.0429
1 30.1137 28.5525 27.5123
1 5.8936 11.7405 24.862
1 30.0257 10.9425 15.9462
1 5.41934 0.863547 17.0606
1 7.14375 1.50153 8.60791
1 8.82919 28.722 2.18517
1 25.2895 16.7082 4.12207
1 12.9437 20.1806 12.5497
1 17.7499 8.00651 3.73155
1 5.75424 4.95048 29.9855
1 21.4786 16.5191 1.54423
1 15.0941 21.1747 10.0633
1 8.35947 29.1192 20.4897
1 6.48447 27.3326 4.49648
1 27.1246 13.676 3.3835
1 6.89729 10.4972 20.7383
1 5.46997 4.72337 6.48181
1 8.86932 24.6417 8.69214
1 25.6876 28.0771 10.7307
1 9.37566 14.4743 10.5369
1 15.4006 2.3102 8.41469
1 27.1973 7.49402 12.2156
1 6.61489 25.973 5.0074
1 2.52668 8.62041 10.79
1 11.5043 28.3483 23.958
1 26.1893 17.0836 7.92891
1 21.3416 5.66699 10.6887
1 28.1498 15.4883 28.116
1 18.9579 8.01485 3.26081
1 22.3088 12.7911 11.1909
1 24.6037 28.4749 13.4377
1 19.3335 14.5062 1.42116
1 15.7651 10.7565 15.9897
1 24.4122 29.2419 3.02385
1 4.65855 26.6825 29.1544
1 25.0607 10.8059 20.7523
1 2.39404 20.9976 4.64592
1 17.9907 2.90513 4.75344
1 25.1027 7.74544 1.59159
1 4.23125 22.1918 20.6472
1 15.4141 29.2595 23.118
1 20.2894 13.9638 13.3952
1 15.3286 27.6995 0.951107
1 2.70376 15.3578 7.59494
1 22.7527 21.3561 6.37099
1 4.29168 19.2182 18.9211
1 29.1942 24.6246 2.59213
1 14.9588 29.1447 18.9206
1 24.7294 2.40403 28.7019
1 26.068 14.2328 22.3842
1 18.8109 28.3622 13.3204
1 23.3037 26.6419 11.1054
1 10.6576 25.6492 9.5608
1 7.47325 24.322 8.9587
1 20.6557 12.8277 29.4733
1 4.90107 9.62712 3.16714
1 17.3017 1.35302 18.0119
1 10.7605 9.04924 22.2962
1 29.8653 22.0435 1.624
1 4.26544 9.06945 23.9216
1 0.427155 22.8681 14.8792
1 18.1912 23.137 25.4154
1 4.92298 7.25661 29.344
1 4.99213 1.81635 16.0928
1 1.04113 30.2444 24.8159
1 26.2013 11.6624 26.0766
1 2.89417 12.1286 14.0417
1 14.2618 11.6668 5.67357
1 10.487 1.30148 1.52081
1 7.24654 7.31696 19.2081
1 9.16669 4.44437 19.7113
1 7.30645 6.77273 9.45532
1 30.2607 23.8233 11.7829
1 6.78156 11.8525 2.29792
1 8.58989 20.0559 20.963
1 22.7621 15.7447 18.9091
1 2.08692 20.774 15.9299
1 2.09459 26.7605 22.155
1 15.281 25.0465 16.9494
1 3.31465 7.25497 18.7339
1 0.23773 17.5485 0.609053
1 7.48337 16.9913 19.7526
1 27.1668 23.9592 4.96039
1 8.7125 23.5838 2.88664
1 12.8661 23.3166 21.9204
1 30.3245 3.99478 23.8118
1 10.9083 16.9571 13.9922
1 2.20007 0.231751 10.2112
1 8.41685 6.25781 29.6402
1 8.40802 28.1293 16.9364
1 21.3625 16.3818 23.5308
1 8.05325 6.09546 28.091
1 25.116 17.4244 21.1095
1 1.60305 18.494 19.3313
1 6.05521 28.9503 13.778
1 26.7232 9.78175 6.53698
1 19.4549 21.209 3.24965
1 29.3248 1.23883 9.44588
1 25.5175 26.9863 1.27033
1 13.3217 3.71853 11.7541
1 15.8905 15.7025 23.0802
1 7.4155 5.98863 19.8146
1 27.6867 18.4581 10.5522
1 8.71916 15.1067 24.6055
1 19.188 17.1815 19.1599
1 25.5923 10.1384 15.0102
1 14.069 1.46864 10.4109
1 8.63613 5.12398 11.3803
1 3.44261 12.1004 15.4559
1 28.0702 23.5922 29.4281
1 21.8681 7.95716 12.4702
1 26.1218 23.9979 24.3324
1 25.6838 12.899 19.327
1 11.1819 28.7992 0.443345
1 9.63192 23.8381 7.75109
1 11.9561 27.1194 7.29647
1 16.4082 17.7446 18.2872
1 26.1021 20.0408 10.3763
1 6.65603 15.0794 9.29739
1 7.43901 29.3014 13.2008
1 19.6353 24.8585 24.5902
1 6.43424 1.44764 19.3683
1 26.1886 0.290354 26.0649
1 26.9426 2.49002 5.13637
1 1.45459 16.0436 19.1408
1 30.3206 25.1501 18.888
1 0.877157 12.4259 8.56315
1 3.96984 14.5511 0.547235
1 17.3731 16.8482 14.7277
1 18.1505 0.371794 4.0423
1 20.4669 5.55673 21.0361
1 21.1779 0.979393 22.6872
1 2.88259 29.4058 28.7244
1 19.7247 14.6367 7.75251
1 17.1291 0.944078 14.1171
1 2.13043 2.86483 4.54517
1 18.3505 25.0938 21.7208
1 28.6007 23.4674 3.24751
1 26.8642 28.0897 26.0221
1 9.19813 5.97928 17.1177
1 10.8961 18.8413 23.7101
1 26.2198 4.37214 8.50567
1 18.0576 24.2967 18.4784
1 16.117 24.1419 25.179
1 2.07531 29.0912 0.910763
1 7.92787 4.05444 5.29994
1 14.9344 9.98777 28.41
1 24.2413 27.2128 7.43124
1 19.674 28.0861 6.52356
1 19.8271 20.8148 1.64624
1 28.7769 0.382547 20.342
1 13.3214 26.1551 14.43
1 10.1344 3.6873 6.57649
1 9.71592 11.4971 28.6043
1 16.0365 5.45126 8.73264
1 13.6608 7.58085 1.27795
1 10.5895 7.60761 14.2092
1 10.0238 18.4042 18.42
1 21.7045 21.5702 20.5304
1 12.033 5.33812 12.8623
1 3.41357 30.0488 12.1876
1 2.12653 14.3532 2.26341
1 5.47595 29.8414 2.71331
1 22.1252 1.00511 21.4971
1 18.7977 16.5199 22.3316
1 9.96152 10.1838 6.12276
1 10.8922 18.8755 4.85269
1 23.4567 24.6697 22.4255
1 3.19379 23.5588 12.5492
1 15.7148 5.90637 15.3567
1 1.83566 12.4673 4.11123
1 12.6894 27.5565 9.39358
1 21.1877 8.85417 22.4487
1 11.5751 8.18059 2.22625
1 2.06447 26.8413 8.76705
1 5.45619 28.6822 19.1676
1 24.0096 28.1691 23.5195
1 18.0639 2.6259 21.5047
1 14.7036 12.4639 27.2791
1 14.8665 1.08227 9.23019
1 4.83155 3.08919 0.501097
1 24.7969 2.50565 4.5272
1 25.0251 0.87154 3.12927
1 17.0031 20.2727 6.56897
1 13.5086 23.3491 13.545
1 1.46294 17.4769 4.79937
1 0.895884 12.0322 11.5366
1 0.304074 22.4229 3.84612
1 9.0402 10.9895 8.37908
1 14.2727 23.9756 4.36487
1 18.0303 19.039 26.8096
1 14.0094 7.21106 27.8202
1 23.5866 11.2222 26.5979
1 16.6292 16.2651 11.277
1 2.98736 1.41128 10.3446
1 12.4908 29.1005 24.2579
1 8.57342 24.3794 17.0767
1 8.13476 27.7653 11.3419
1 5.34396 24.3841 29.5162
1 6.10899 13.3166 15.3156
1 16.6919 30.1508 28.0956
1 5.54409 17.2055 0.920788
1 7.24664 29.9689 15.3857
1 0.354992 5.86574 2.16369
1 0.332152 6.60922 26.7244
1 11.5802 13.6494 29.3243
1 13.9494 0.737368 1.12093
1 6.19154 5.22593 22.517
1 27.6684 18.0501 16.814
1 19.901 27.4201 8.01028
1 5.93233 11.9051 9.84695
1 27.9015 11.5262 10.3645
1 25.1357 3.78194 1.15547
1 19.2603 29.654 9.71648
1 19.8156 13.4389 6.71822
1 19.6542 4.5479 8.69179
1 10.228 1.2813 11.9889
1 8.23215 6.39727 15.385
1 8.72952 29.1622 4.17585
1 11.4461 27.1461 4.93801
1 18.6045 5.52622 1.66958
1 24.7143 26.475 19.6023
1 11.4387 1.93654 6.5322
1 18.9457 14.4356 13.0617
1 6.38443 13.9468 23.4227
1 20.8356 22.7374 9.93561
1 21.1243 11.2721 25.0749
1 13.0668 5.64841 30.3194
1 27.9581 3.43904 14.0055
1 14.2307 4.91673 13.9664
1 20.1062 5.99394 3.19861
1 6.46556 26.8539 25.7189
1 18.8018 5.2776 9.91934
1 3.43855 8.09171 11.7185
1 17.4257 21.9554 25.9341
1 2.88741 17.2541 21.0137
1 24.8745 16.7134 22.3896
1 21.0347 3.29618 20.7704
1 10.3216 23.0383 22.7602
1 20.7385 21.8349 7.40412
1 10.6247 0.81989 14.5124
1 6.54698 21.5139 13.7664
1 8.84605 1.07882 29.0142
1 12.777 12.2635 19.1575
1 20.2025 11.7248 17.8187
1 2.58883 26.3018 3.88789
1 20.6432 24.6556 19.0745
1 4.67317 20.4183 19.1965
1 20.423 3.68984 27.286
1 22.1571 9.20124 28.6867
1 10.4155 9.3998 11.047
1 8.20693 20.1518 18.3265
1 27.3195 8.93862 4.53255
1 12.0236 5.27843 7.89817
1 3.42953 10.9996 13.192
1 8.62221 10.3693 21.9507
1 4.15606 27.4707 30.1104
1 21.3218 20.0735 10.689
1 22.8735 18.6627 2.07919
1 14.4381 6.46878 3.57523
1 3.03974 26.2591 15.2569
1 24.0979 20.1152 26.3093
1 9.73839 1.6592 20.8083
1 26.5411 19.2045 22.5966
1 2.51248 4.2824 4.61468
1 1.17088 30.3411 14.6993
1 21.3833 19.482 24.7423
1 25.6015 18.9685 3.18067
1 0.253328 19.355 7.60863
1 17.6258 3.18979 24.3567
1 22.0244 13.4078 29.2794
1 17.6165 10.4753 17.7409
1 16.5127 5.77714 23.509
1 5.46484 28.3196 27.3075
1 13.6283 17.5526 30.1486
1 27.2556 29.7903 8.1375
1 23.2395 3.13174 22.0408
1 24.4868 29.2079 6.0049
1 14.3842 27.7184 9.76026
1 17.5569 21.0066 21.2232
1 9.94596 14.807 25.2021
1 13.3297 17.6878 18.4566
1 6.91562 24.4244 15.3153
1 6.44596 23.4054 27.1591
1 9.97015 23.0146 8.90492
1 4.70221 11.2399 15.9038
1 6.54341 4.14196 25.5205
1 10.2773 14.6913 26.5264
1 23.185 0.572483 1.6748
1 26.7964 26.1877 7.80342
1 2.60557 16.2967 6.63328
1 3.61162 21.7984 14.3139
1 22.8647 6.09228 2.94459
1 21.4188 15.5154 21.4162
1 0.466349 9.83635 28.4321
1 23.4345 18.4527 3.50002
1 10.771 19.889 27.4626
1 20.7701 17.9542 21.0498
1 23.1537 9.13842 10.6014
1 16.8633 1.40998 28.5837
1 27.0134 28.4059 7.57101
1 21.076 16.9633 8.8341
1 10.7749 22.9111 19.0526
1 11.0581 28.1478 20.8846
1 14.0678 20.1788 10.2378
1 11.6659 26.6115 1.53472
1 11.4937 6.3572 13.9423
1 9.13896 28.6277 23.9059
1 9.15714 25.4575 4.82295
1 19.4398 8.82293 28.4141
1 5.21001 13.6469 1.35295
1 15.3447 27.8591 29.293
1 1.58312 20.9683 2.18165
1 28.7276 4.61864 20.561
1 0.855838 5.42079 14.4943
1 12.2009 9.51222 16.3102
1 8.49954 30.1271 21.5329
1 29.5358 18.0999 19.7892
1 22.878 20.8291 1.87527
1 15.2042 27.8041 21.2009
1 25.6869 13.0849 1.54948
1 22.3966 9.19215 7.308
1 3.27425 21.2872 27.4867
1 10.1583 25.9639 11.6405
1 7.66523 18.2058 20.5084
1 7.75576 13.9316 19.272
1 17.5289 22.0966 16.7507
1 30.0152 30.0437 7.48297
1 29.4058 12.3578 16.2074
1 18.8725 0.92419 8.6553
1 4.26534 8.02376 20.9231
1 4.00233 7.54843 26.3181
1 11.7314 30.3078 2.58403
1 18.3559 20.2234 29.9391
1 15.4527 11.2974 28.0123
1 9.1642 27.3476 19.3387
1 11.5945 19.8275 12.0842
1 9.02503 18.2831 28.4071
1 29.8274 0.835473 2.57462
1 17.9422 20.7618 16.2947
1 11.7219 11.1618 9.83942
1 1.08542 22.3917 24.7404
1 3.35725 12.0136 21.3533
1 1.75139 9.8625 15.7314
1 26.4821 11.2162 6.79823
1 8.30017 6.64196 4.42124
1 18.7163 20.2877 26.3961
1 1.72558 23.767 9.48645
1 4.23771 1.32967 28.7007
1 19.2788 11.1888 10.0453
1 26.3365 7.75151 17.5073
1 8.65852 11.2549 26.4324
1 4.16312 27.3182 14.166
1 14.2694 19.1188 9.12119
1 4.53478 29.1092 10.0969
1 10.295 15.1011 7.68835
1 29.8143 9.91534 4.44221
1 10.4257 3.51767 7.97371
1 17.3313 29.0249 21.0221
1 2.29405 1.75291 22.9524
1 15.6093 20.4296 7.20656
1 1.05056 0.570233 1.9337
1 5.96076 20.8378 29.0887
1 7.99123 8.69158 5.97143
1 0.252913 14.9184 26.5813
1 11.5452 5.52089 6.60052
1 25.5975 8.62913 6.602
1 3.72811 22.6141 15.4804
1 9.03307 3.145 9.91621
1 29.2367 22.1241 20.3599
1 28.8419 23.5897 9.64783
1 21.5678 5.8 24.4729
1 9.19638 0.422887 6.14621
1 8.53551 11.1804 10.3665
1 8.22039 13.8632 24.3391
1 12.7356 8.41548 6.06686
1 1.7202 7.19599 20.3201
1 16.0365 18.6106 23.6207
1 20.0524 9.49365 15.2502
1 18.6757 4.92224 19.8944
1 18.4293 29.0856 21.9005
1 28.6004 22.114 7.87572
1 11.6109 9.43624 27.0064
1 1.61379 5.52278 10.3321
1 17.7869 23.2722 1.63498
1 18.54 2.93119 13.4509
1 17.4 25.2527 6.48001
1 12.7472 3.54029 17.151
1 1.04532 25.838 28.8293
1 8.11715 29.3721 0.219654
1 0.221994 1.62285 18.7158
1 26.4749 20.9684 17.2791
1 7.10566 18.8915 16.0962
1 1.91802 28.2492 21.7997
1 1.58046 8.64327 19.6616
1 16.4272 22.1179 17.7438
1 1.73214 7.59583 13.2819
1 19.9809 8.11358 11.0168
1 21.8837 5.03826 28.5551
1 13.8182 7.87985 16.3809
1 17.4064 10.3443 24.4732
1 26.6746 2.36862 22.6588
1 9.6366 8.24671 22.2138
1 30.3035 3.10887 25.053
1 15.631 21.8897 7.7269
1 27.2716 6.25241 18.8614
1 14.3086 4.71279 26.5702
1 21.3096 15.3404 2.48429
1 18.3391 15.7627 30.0313
1 8.38699 14.8949 5.87438
1 19.5151 8.53135 9.54057
1 23.5866 8.61462 26.855
1 8.03983 20.1732 22.4587
1 3.77228 3.19114 3.03214
1 9.54766 27.1333 3.03996
1 25.1617 3.46761 9.07304
1 2.6214 24.8878 12.4931
1 0.369055 2.69333 14.3204
1 6.15428 7.32391 22.8818
1 15.7067 16.907 24.9285
1 7.6977 4.82033 6.5443
1 7.80364 22.1756 15.9735
1 18.9091 16.5287 1.91518
1 26.4489 12.8385 26.7155
1 2.8785 14.2922 24.0234
1 5.9921 18.8903 10.0652
1 2.36457 8.80017 26.7944
1 8.68803 15.0016 21.0814
1 14.0579 9.59658 14.677
1 9.34944 11.568 20.0154
1 28.4272 4.28956 7.47562
1 28.1433 8.84635 8.72543
1 20.4991 5.14466 13.4833
1 12.8129 18.5044 20.2636
1 23.1887 8.64322 17.0044
1 6.66917 5.25861 19.1489
1 0.714002 12.919 6.41888
1 20.8353 27.5374 5.88562
1 11.3338 22.5301 14.4848
1 12.6178 7.06832 16.1826
1 28.1483 15.5677 16.348
1 28.375 8.73927 0.20411
1 2.00573 17.6338 7.55718
1 22.2809 18.1771 15.8069
1 0.330394 2.09103 20.116
1 29.6202 5.60357 10.4291
1 1.08816 21.0088 12.2992
1 10.9302 2.08028 18.7975
1 25.3204 14.0699 28.546
1 20.4622 16.3847 27.3055
1 22.0229 21.6132 23.4625
1 18.3346 15.2074 2.60623
1 20.9488 9.585 19.8375
1 15.9273 22.3049 3.50315
1 27.5765 15.174 15.1288
1 29.1141 19.9026 6.71605
1 0.914307 28.3734 4.10579
1 3.36687 6.50318 8.68959
1 16.5432 6.34038 22.221
1 17.9219 18.9103 24.1342
1 5.4664 30.1669 10.6618
1 26.5023 18.1153 23.7417
1 19.8322 16.1825 15.3089
1 7.47559 20.3761 24.7258
1 26.9207 30.2875 24.9397
1 10.1897 17.2898 9.56578
1 6.46011 11.7041 20.1379
1 15.4966 14.4928 25.9962
1 12.8301 6.22007 25.7729
1 24.1648 24.4093 15.8916
1 25.0723 8.82722 12.4934
1 20.351 3.85064 1.43269
1 4.23289 17.5923 0.313295
1 23.6178 12.4029 27.6
1 22.0958 3.04037 29.8345
1 16.1201 1.3255 29.8459
1 8.347 14.3994 28.4607
1 28.6261 9.12822 5.02059
1 27.6499 4.31593 21.6624
1 2.44987 28.6886 26.3719
1 2.55276 14.1294 28.4882
1 27.4846 6.35576 28.3537
1 29.3837 23.4751 14.6372
1 9.64987 4.02726 21.0007
1 7.35175 2.50056 3.49382
1 17.9633 17.4459 16.6674
1 10.5289 14.6542 16.1352
1 1.28756 29.378 8.04547
1 17.7041 21.6935 27.1364
1 10.0282 6.91269 23.0073
1 4.68488 24.353 25.6751
1 29.8387 30.0003 27.4574
1 17.8687 13.314 18.2766
1 29.8673 11.4016 18.2584
1 30.1636 25.7973 27.8094
1 21.304 4.79693 18.883
1 1.15841 14.224 28.967
1 12.7062 4.53892 0.689842
1 15.7815 19.2899 8.59941
1 2.22069 6.9907 6.26593
1 23.6725 24.3499 13.318
1 9.13036 5.69444 1.94256
1 12.9711 4.81649 21.5162
1 30.1427 0.470008 14.0085
1 6.27428 28.8665 21.4603
1 15.7877 12.8951 22.51
1 21.3427 7.40173 11.2305
1 7.19931 22.9016 25.6385
1 6.60106 13.1415 27.6881
1 9.46728 25.5016 21.7406
1 17.423 29.3856 28.8599
1 9.20863 11.2125 2.5759
1 28.5895 28.169 23.7891
1 6.84604 11.766 18.8257
1 23.5467 13.0118 3.5196
1 3.04417 1.86157 13.0194
1 20.2304 6.04429 14.4085
1 11.4058 3.52267 29.6148
1 19.4669 26.1158 2.55569
1 4.06621 24.1212 8.86947
1 19.4955 18.3447 7.4668
1 24.2216 1.34959 2.13382
1 10.614 29.7762 13.5661
1 10.9277 27.9693 1.66824
1 30.3319 26.3303 6.59623
1 12.1755 17.8046 19.3103
1 24.0957 6.11304 6.84532
1 22.3131 12.4116 13.2462
1 2.46524 5.79847 29.2521
1 6.21095 28.1111 23.8171
1 26.6654 23.6194 23.0418
1 30.2196 8.73881 7.57017
1 14.7871 25.7872 14.5974
1 28.1404 19.1009 19.7531
1 25.165 13.6783 24.629
1 8.66209 17.4904 24.7323
1 8.50285 10.4974 30.2847
1 29.1406 30.155 8.56302
1 3.60689 9.33713 28.8439
1 13.8984 17.8391 9.43512
1 30.1635 12.0864 29.9084
1 7.11222 18.6282 7.71695
1 3.84847 7.05134 2.7469
1 14.7901 1.77215 27.3081
1 3.44537 15.9711 21.1289
1 2.67644 30.03 27.4805
1 12.9332 4.70974 3.64041
1 22.229 18.4327 18.1456
1 26.2857 23.7704 2.11582
1 13.3811 16.9731 29.0298
1 1.33529 14.0069 5.97403
1 14.4426 4.69987 23.113
1 8.95682 16.584 23.8188
1 3.72341 16.4568 26.2171
1 4.78073 17.7977 8.15937
1 2.36948 9.79284 18.0409
1 1.91021 18.0663 16.388
1 3.81139 0.631447 26.9354
1 16.1773 25.0949 19.9897
1 2.17506 3.64289 16.3197
1 23.0332 10.1414 24.6055
1 20.0747 2.43467 3.40003
1 2.22997 26.3138 17.5685
1 11.9276 24.218 6.60855
1 19.6829 11.238 25.8493
1 0.983993 4.90121 5.72134
1 30.0106 21.179 27.424
1 17.0536 24.3828 27.3187
1 30.1539 9.42398 0.960024
1 13.6257 19.2849 11.5122
1 26.1632 15.0108 15.6558
1 6.6502 21.4333 24.8244
1 7.3407 25.1693 19.8827
1 3.43439 20.935 1.28238
1 3.55007 13.5851 29.7614
1 27.3121 0.613534 0.747707
1 16.7794 6.623 28.197
1 7.45176 13.4472 28.8428
1 21.4807 9.79497 8.23856
1 15.811 4.52729 23.7723
1 26.0117 2.53868 6.30322
1 3.66885 13.3471 20.9326
1 29.3753 16.399 23.8144
1 29.5207 20.8059 12.9011
1 7.80244 8.21213 20.221
1 0.950707 15.997 2.62992
1 4.73671 6.87239 18.2365
1 12.3748 14.9805 13.5673
1 21.6313 10.7386 9.29847
1 12.2869 25.093 12.7419
1 13.0426 15.7422 27.0138
1 15.555 22.7198 2.08892
1 25.6518 7.66717 24.632
1 15.9553 18.815 4.71478
1 22.6413 16.2067 21.3473
1 29.2228 25.594 15.854
1 21.6907 3.26552 18.195
1 27.28 16.6428 1.37198
1 9.7315 18.2663 29.6039
1 29.7956 17.873 7.71976
1 15.174 11.1673 24.1212
1 17.1604 21.4855 18.9064
1 11.1696 19.551 26.0525
1 4.69257 16.9564 9.25384
1 9.03678 3.04014 29.1393
1 8.47505 16.5186 15.4799
1 7.98254 21.6029 13.27
1 22.8209 6.27341 0.208486
1 27.7004 10.1427 20.093
1 5.88782 17.092 17.9196
1 20.0374 13.935 15.6216
1 21.1148 28.8199 28.5211
1 24.8916 1.62763 20.6049
1 9.29009 5.36176 9.2303
1 1.24072 0.983297 25.8324
1 30.234 18.3806 25.0013
1 21.6672 19.6129 9.30697
1 15.6097 6.61555 10.9018
1 4.74937 27.6762 10.6721
1 23.7222 2.63224 16.2951
1 11.1953 21.9455 13.1194
1 8.39454 24.6149 27.7066
1 18.9859 3.33297 17.606
1 0.624808 16.057 25.2681
1 20.927 26.9665 14.6227
1 13.0562 27.6549 21.6716
1 2.37847 28.8926 15.9999
1 8.29927 5.18932 4.1651
1 28.6937 12.0143 20.5939
1 23.2162 18.874 0.622216
1 16.3575 28.0756 2.96827
1 24.1814 15.1239 2.54147
1 10.2813 3.90563 12.6105
1 5.82046 4.90925 11.0168
1 23.2273 26.4647 19.7092
1 12.0544 7.03128 28.4787
1 8.84964 2.08837 1.7523
1 1.70359 0.998496 15.4877
1 2.95392 10.0818 0.860777
1 6.79087 1.34458 23.0044
1 25.1488 0.440484 21.78
1 9.94298 12.945 17.8796
1 17.9079 5.18647 12.6013
1 21.8506 12.1339 15.7206
1 4.46855 10.0849 16.6836
1 17.7184 5.39943 18.8856
1 26.983 13.2402 18.7277
1 1.27977 11.056 10.458
1 13.0696 8.04334 10.3487
1 4.44933 3.24894 18.3034
1 24.0409 3.46885 3.6617
1 19.7172 25.646 5.28628
1 6.17631 3.84028 0.985902
1 4.48674 3.50808 21.5969
1 3.36422 16.6617 24.8041
1 23.1292 30.2949 20.751
1 13.5376 5.41262 15.2022
1 14.021 8.7563 24.9418
1 12.6484 24.8861 21.8538
1 29.3152 7.49243 13.5017
1 4.05009 11.041 3.34628
1 14.0512 14.7647 18.1981
1 10.354 7.77071 15.6626
1 9.25534 6.06984 26.686
1 12.1887 8.94187 23.5476
1 9.63183 8.3981 25.5875
1 1.78306 29.331 13.5957
1 21.9556 14.6598 26.0329
1 20.9481 19.58 4.51156
1 14.088 29.1191 10.5941
1 2.18128 18.2077 1.49864
1 12.2028 19.1299 4.16478
1 13.6731 18.1479 26.59
1 19.9236 2.40697 7.19277
1 17.7384 18.266 17.6588
1 14.4883 29.3211 7.58082
1 25.7344 28.7026 15.7353
1 5.88883 6.4089 16.036
1 5.00422 7.9775 14.3014
1 11.3432 19.1695 0.889382
1 3.97797 18.0191 23.0341
1 29.2488 15.0662 9.9421
1 6.30662 14.6362 19.1632
1 28.4934 0.273515 25.1383
1 26.2365 18.4146 21.3889
1 12.6731 19.8325 25.6374
1 28.0384 17.7792 29.4216
1 12.6655 0.671393 11.6584
1 12.5474 30.1828 9.09779
1 15.6893 0.920081 14.3902
1 9.01027 5.66005 23.2009
1 18.9561 18.2229 14.9696
1 29.3762 13.1544 24.0941
1 13.0202 28.6492 17.7523
1 8.23103 22.9219 20.6938
1 22.9715 23.5285 19.284
1 23.2453 13.5763 4.77569
1 3.91394 16.7526 6.13375
1 27.2674 5.80446 10.1966
1 14.8514 3.46313 15.8576
1 1.56896 22.5888 14.023
1 15.0293 5.02709 7.4269
1 13.9755 3.38423 0.379469
1 16.3455 28.5148 13.6561
1 5.53034 5.40649 27.0842
1 19.3535 20.5566 15.6331
1 21.0722 22.2307 30.2874
1 27.6505 0.277502 21.3862
1 23.2033 8.75202 24.1845
1 13.9274 25.5565 2.52942
1 1.07756 22.6203 12.5097
1 6.64822 24.2768 13.0719
1 10.8681 14.9896 12.864
1 15.209 3.79566 14.5196
1 24.4374 11.7317 16.5072
1 7.36517 26.542 20.237
1 24.6055 1.58681 29.916
1 12.4718 21.2492 25.3621
1 27.4053 12.1209 17.8727
1 0.586623 10.2108 2.10701
1 5.58369 11.4403 7.28991
1 26.3298 16.9978 6.28315
1 1.81173 17.3211 8.86374
1 6.11271 15.3154 6.76221
1 0.689883 9.56696 14.6331
1 4.49607 4.49125 18.7095
1 9.38168 4.85912 13.799
1 18.5689 25.9025 22.9621
1 28.7637 1.54771 23.046
1 6.3383 29.2069 22.7386
1 11.7371 25.1752 20.7025
1 15.161 30.1535 27.6568
1 28.2377 5.81307 2.79388
1 25.935 23.8365 27.5023
1 5.88733 5.85916 14.722
1 26.0248 29.9985 12.3582
1 17.6313 27.9607 13.9977
1 29.1564 7.49574 7.30395
1 9.42414 23.2472 1.63778
1 11.4963 6.75008 2.28208
1 13.2941 30.0905 26.689
1 16.7026 30.0764 16.1118
1 21.9168 12.3006 7.11522
1 23.1692 22.9558 13.3179
1 5.76539 22.0545 27.178
1 28.2741 24.208 22.8086
1 21.2201 11.8633 8.2622
1 17.5156 12.1601 0.874683
1 24.7156 24.3574 18.0418
1 3.68535 16.5204 15.3123
1 10.493 18.9871 9.66804
1 6.82189 28.3335 19.3785
1 20.3501 17.1959 7.44161
1 25.4994 22.88 8.8223
1 28.702 16.7978 27.6903
1 12.4431 6.11577 5.78844
1 24.5649 18.8007 7.98371
1 2.40383 26.2943 7.53884
1 26.5583 22.697 17.2326
1 24.9936 6.3374 7.83272
1 28.5539 21.8711 5.18491
1 7.61942 25.1396 26.7266
1 22.6505 16.9249 16.3024
1 29.0142 19.136 5.31842
1 15.145 20.4681 24.953
1 13.4896 16.5999 23.6318
1 25.9463 20.6124 28.3283
1 13.75 24.7127 16.5686
1 5.83523 2.64941 19.1243
1 7.05892 19.9988 27.7669
1 11.4459 22.7839 10.6786
1 27.5011 11.6838 12.6495
1 2.07275 7.43081 16.148
1 4.34949 8.55024 2.10089
1 14.4777 15.1328 21.326
1 8.99133 9.67246 10.7688
1 14.024 10.2558 18.4763
1 10.9135 9.73407 23.4715
1 26.0736 14.5788 1.30255
1 15.7261 8.42496 6.70076
1 4.05724 3.50133 1.80392
1 16.6848 3.83988 20.1381
1 6.82601 3.11234 5.24012
1 22.5348 16.005 15.1614
1 20.8981 18.1361 4.85384
1 24.1517 3.86417 19.0353
1 4.56622 1.91904 25.3973
1 30.2138 17.4447 28.228
1 3.11268 26.1044 20.0559
1 22.4571 17.6901 27.1814
1 3.57091 15.326 23.987
1 6.47019 5.7842 6.36109
1 10.3425 3.85474 0.552198
1 21.0278 5.85119 27.4243
1 24.3668 7.55212 14.8722
1 28.5672 19.7819 4.27947
1 22.2506 26.6597 26.2186
1 16.9845 13.7776 9.87782
1 21.4356 24.8393 10.068
1 29.4387 0.930912 11.0653
1 24.7171 13.4598 7.27152
1 29.5908 23.1936 8.4533
1 2.03494 4.62773 6.82035
1 2.98336 8.80164 5.58794
1 28.0682 11.202 8.64416
1 4.47002 30.1055 5.05084
1 16.2715 19.1635 11.5903
1 1.59877 23.3728 27.2895
1 23.1772 14.1171 2.5378
1 3.13297 8.98419 18.9034
1 2.6137 13.7416 5.42331
1 10.7095 18.2951 6.02394