4096
Atoms. Timestep: 340
1 20.7363 12.1396 5.14194
1 18.0187 26.5577 25.3073
1 5.18312 8.36611 8.83705
1 17.9744 10.53 21.6138
1 2.32704 20.9914 4.09213
1 9.13063 19.2587 26.5646
1 20.8868 1.45807 10.0477
1 25.7888 29.5093 6.87031
1 11.5422 0.842446 11.4022
1 22.0212 14.2313 28.6598
1 15.8588 12.6649 25.5622
1 25.0759 27.5525 19.6875
1 14.781 29.9832 18.9885
1 12.9841 2.2269 30.2123
1 26.0702 26.6196 13.1565
1 28.1139 30.305 23.3451
1 29.3007 26.9858 16.4474
1 9.27907 16.7566 23.7863
1 4.08994 11.7694 3.26143
1 30.0693 2.55059 16.2457
1 7.2365 27.0099 10.0989
1 10.2204 27.5352 13.7143
1 16.4955 9.85617 12.9311
1 9.36456 21.7851 22.4519
1 9.09028 6.71518 10.2033
1 27.9338 7.08771 13.5435
1 18.1206 29.3832 5.02792
1 7.50648 8.2396 10.6089
1 14.7187 13.847 1.10474
1 9.05385 23.0117 23.5132
1 6.83131 19.9388 20.5714
1 5.64028 12.9858 1.79634
1 13.7051 14.4031 14.3412
1 12.7119 11.955 19.4372
1 9.45345 22.7618 13.2175
1 7.39027 23.5094 20.7084
1 25.113 11.1094 14.1855
1 15.2512 24.335 19.5209
1 11.1549 12.5351 3.18421
1 2.45857 11.8403 11.8486
1 20.3128 8.21028 16.0647
1 30.2322 17.9022 7.38509
1 4.27321 18.6549 16.6109
1 19.7378 15.4169 13.81
1 16.7784 6.49906 26.218
1 18.666 3.80951 15.4975
1 12.9489 5.55689 17.2973
1 12.5163 6.59978 25.0801
1 6.27946 22.2461 9.37216
1 21.1077 27.2597 12.3132
1 21.9013 3.21325 2.13304
1 22.3237 5.31965 13.656
1 5.37796 19.9684 16.3265
1 13.3894 8.99562 9.36599
1 7.05042 21.1145 24.0267
1 24.6634 6.32444 13.5112
1 4.19768 7.89847 18.8649
1 9.14562 22.6042 0.963189
1 5.56989 27.0976 23.6557
1 25.1909 9.4271 25.1454
1 28.2753 8.04381 17.2055
1 4.80649 26.3382 11.8895
1 20.9784 16.7907 8.12908
1 5.85677 6.97008 6.31913
1 1.72487 3.09421 12.0819
1 19.6627 27.4199 8.74922
1 21.1342 20.2678 28.5003
1 22.9835 19.3422 10.8822
1 29.773 1.09108 21.03
1 16.5606 6.68126 8.42538
1 15.2911 26.5186 29.5368
1 26.9338 0.954237 1.49709
1 1.49628 5.39086 27.6526
1 10.3986 29.8186 13.314
1 29.1286 2.29867 8.48474
1 21.3654 2.59788 24.6899
1 3.18328 30.2259 15.23
1 30.4312 0.617479 25.6481
1 5.46892 9.8015 30.1527
1 0.993214 2.67735 16.5679
1 20.4901 9.28878 29.4808
1 20.3815 20.6081 19.0324
1 24.2496 4.38253 15.6126
1 28.692 21.0222 1.55683
1 17.5175 11.6017 4.99198
1 2.98837 25.2468 11.1046
1 24.6438 2.65746 28.0951
1 27.4349 29.3952 4.72442
1 15.0927 5.46987 19.0972
1 26.2278 15.8578 19.8259
1 21.2029 23.7951 7.46285
1 6.55109 3.476 0.649632
1 19.9159 28.9812 24.6381
1 29.4071 14.9108 13.9192
1 27.5024 20.7678 4.7665
1 15.6048 21.3085 10.5421
1 25.1858 19.1033 7.84536
1 4.55057 3.50547 3.81956
1 15.0356 2.76118 16.4446
1 9.21929 18.6147 2.82249
1 8.63862 7.84926 4.79278
1 0.573014 18.6643 22.7628
1 16.0349 21.3137 13.0874
1 11.4087 4.11984 0.214684
1 17.6903 21.6319 16.2699
1 29.5898 18.8922 1.73724
1 1.42845 12.2363 10.0581
1 11.4284 0.868634 20.8795
1 9.99044 5.13272 11.8354
1 12.5031 28.4597 27.3678
1 9.65153 8.73329 7.8685
1 17.7095 27.8748 25.5375
1 28.0482 2.09345 10.9089
1 20.616 23.7626 29.8512
1 29.9906 15.0422 25.5368
1 22.9667 17.132 13.726
1 16.388 27.9417 13.048
1 30.4512 21.9484 4.65637
1 15.6765 0.189996 8.96056
1 21.4117 14.5131 7.59416
1 21.5439 3.12307 23.0425
1 26.3449 19.9171 4.65781
1 22.6597 2.29853 8.21657
1 21.7201 0.129524 19.4254
1 5.49904 16.094 5.6789
1 15.0885 12.2742 20.9588
1 -0.130691 20.165 10.2577
1 18.7844 26.6594 13.3079
1 11.1778 18.259 16.3184
1 3.96672 22.155 13.2581
1 28.1587 20.7274 19.2966
1 11.6845 15.8952 14.0966
1 8.8288 25.5923 16.4972
1 7.3387 0.92408 2.36831
1 1.87539 19.5211 16.5538
1 20.9475 7.19368 8.59136
1 15.0625 7.46714 9.97733
1 17.726 13.0193 22.2347
1 12.6839 20.7024 22.4632
1 1.57864 22.7989 7.25425
1 17.9374 28.9733 1.00194
1 9.09663 26.2118 25.2197
1 19.462 30.1332 2.63536
1 16.0608 24.0897 7.35897
1 22.1516 21.3553 11.1526
1 21.5397 23.2643 17.6181
1 1.00393 13.749 14.1703
1 20.4377 10.4312 25.5367
1 18.6687 5.9752 5.50024
1 17.917 25.9168 15.1837
1 24.8183 25.6887 27.0764
1 0.393896 22.301 1.09423
1 24.9122 10.2502 8.31244
1 21.1728 27.4686 2.61899
1 3.48519 18.5098 10.4488
1 22.8925 4.7948 7.89865
1 7.5737 18.7083 16.6868
1 10.2865 4.88132 22.3537
1 4.57993 22.1898 0.321351
1 0.25815 9.91093 26.5696
1 22.9926 23.904 4.49773
1 7.35202 1.24644 21.1374
1 4.65897 20.9417 20.4893
1 12.8548 9.70066 1.79133
1 25.181 27.5397 12.5683
1 28.5396 10.9423 8.25902
1 17.8833 0.394172 29.8228
1 12.8348 18.0304 20.8103
1 15.9871 11.2986 16.2715
1 12.1378 18.4166 21.9656
1 5.585 24.1036 26.5465
1 9.27775 5.63435 19.6449
1 11.6451 19.727 21.7882
1 25.3885 7.9064 15.1601
1 24.1425 7.38875 6.58431
1 13.7409 13.9229 23.5195
1 4.29691 16.028 11.5549
1 10.4184 2.27975 6.284
1 23.8649 17.2181 17.0348
1 0.87371 19.1674 10.4768
1 8.26035 9.05118 11.5215
1 19.7009 12.3427 26.7215
1 4.8417 11.2961 24.2307
1 14.3749 5.49429 4.95524
1 2.12403 23.9303 7.64534
1 5.1645 1.95931 10.4899
1 22.4516 29.2906 3.84667
1 0.862646 14.4733 22.5552
1 17.7145 7.66946 13.6017
1 28.027 5.62023 6.46004
1 12.9476 15.5989 6.59155
1 28.5146 10.5386 21.4564
1 2.9675 11.6319 17.8788
1 12.2867 13.1658 13.475
1 21.9332 25.8838 20.2815
1 2.57116 3.96458 25.9482
1 6.45071 19.37 15.6577
1 1.71472 9.85244 12.6692
1 9.50318 1.44473 13.0641
1 19.6795 20.6726 28.9393
1 2.698 26.6448 25.6635
1 30.2288 1.71324 4.02654
1 21.5491 16.2875 1.33542
1 11.4507 4.04706 5.26387
1 2.05306 18.8268 7.45708
1 12.7149 7.69959 18.6545
1 0.383735 27.4175 21.1124
1 27.3476 18.2553 28.3657
1 26.2735 23.708 22.3345
1 6.59352 5.78344 27.0989
1 18.6594 7.21704 27.2698
1 14.7297 4.4723 0.0239271
1 19.5281 23.5916 5.69637
1 18.7996 7.55115 7.5394
1 2.27118 19.4572 10.4553
1 8.18742 9.50993 13.0901
1 27.8341 19.5457 25.4504
1 3.98585 2.97604 19.9186
1 27.6023 8.86738 10.4036
1 6.81018 10.2702 29.6949
1 20.4498 6.32148 0.582474
1 1.804 12.9784 11.1905
1 18.9 8.2813 21.8553
1 6.05071 20.7785 3.34936
1 22.4419 16.342 4.40144
1 29.8557 14.9249 22.9186
1 17.2517 8.54467 2.91085
1 21.6231 30.2562 22.9727
1 2.80497 13.3807 6.9689
1 24.8743 25.1057 1.46627
1 5.3307 0.500042 21.1147
1 13.2815 12.5078 9.69989
1 9.27473 14.4908 14.3786
1 5.57783 10.348 9.84504
1 5.37339 29.2649 18.475
1 26.4891 21.9561 16.5392
1 30.449 2.00745 11.952
1 5.91445 8.79753 12.1632
1 15.3959 7.22529 27.1971
1 28.0207 1.54553 0.835989
1 19.7933 29.8032 20.5905
1 18.2038 9.88613 24.338
1 2.47445 9.18316 6.98597
1 17.7607 1.08299 28.5969
1 13.9203 18.3405 1.51674
1 12.077 16.565 6.07455
1 4.07452 14.3188 20.1026
1 10.8067 19.5198 4.81541
1 23.5282 23.5589 27.6836
1 19.713 23.141 14.2413
1 29.9908 20.6268 4.61821
1 15.1958 7.62343 13.1999
1 18.9244 19.5945 29.1449
1 7.1122 5.84007 19.6791
1 8.2957 4.03585 9.09732
1 27.4884 24.6758 22.4144
1 18.4284 0.808655 2.86628
1 12.2879 17.222 29.0027
1 3.70964 1.65323 10.956
1 0.893862 1.64875 14.1576
1 9.2081 9.42319 0.687344
1 7.20923 4.76368 26.4741
1 13.3751 17.1158 27.641
1 4.06982 14.8156 29.5521
1 5.89276 10.8738 12.763
1 11.7721 22.3687 14.8027
1 10.5513 7.48396 15.4454
1 29.4667 3.29138 29.965
1 2.8113 30.0978 12.0665
1 1.34784 25.2237 7.97367
1 7.08148 5.91385 6.17334
1 20.308 2.20671 7.74198
1 16.2954 12.307 18.5551
1 3.2626 15.0608 2.33259
1 28.0052 22.0562 25.7759
1 6.01683 5.1396 9.10824
1 25.0782 7.95936 0.424156
1 9.25637 28.8768 11.2162
1 9.42515 22.3628 18.6267
1 6.40232 2.77723 19.0971
1 15.2169 11.533 6.28783
1 28.2197 27.8349 20.4006
1 9.40834 3.36509 6.54016
1 26.2956 24.9195 7.82294
1 26.1777 6.31483 15.9406
1 11.1444 3.29371 1.69937
1 22.9065 25.2625 23.9593
1 27.1752 18.6291 4.67395
1 18.1673 25.1046 6.93181
1 16.7924 10.3934 8.92274
1 18.6101 10.7904 10.5468
1 16.9723 18.3964 12.6267
1 1.62156 18.4311 1.20589
1 15.4165 17.7445 10.9898
1 26.2357 19.7613 22.8237
1 30.1931 13.4573 17.2145
1 8.83651 16.8161 28.3912
1 7.68977 27.5836 0.829477
1 15.786 30.0106 11.2294
1 22.9857 20.426 8.26703
1 8.38432 16.993 20.2814
1 8.26317 9.14858 22.3768
1 25.0094 14.6249 1.12858
1 7.5706 13.7471 21.7913
1 4.8344 10.7923 13.9388
1 29.9825 27.605 8.31287
1 8.37559 25.5959 22.678
1 29.6306 25.9125 1.77712
1 9.09012 20.7217 26.351
1 17.5891 29.3916 16.7499
1 22.4867 17.2768 17.1465
1 22.4055 4.35179 1.86129
1 15.5141 1.63153 24.5774
1 26.9573 20.14 13.2938
1 23.1226 9.50125 15.5397
1 10.6571 5.42738 25.6153
1 14.0485 28.0017 22.6511
1 14.3531 16.0307 20.4355
1 22.0131 27.1393 18.7411
1 19.3199 16.2935 22.6582
1 24.6351 16.8146 13.9629
1 18.2644 3.11337 8.96174
1 2.71997 14.6274 29.4186
1 2.63244 29.3704 13.2527
1 8.48334 20.8949 14.1946
1 13.9716 21.7645 13.9194
1 0.533663 19.5828 16.6625
1 13.1275 12.1291 1.68885
1 5.05384 12.2396 27.4199
1 11.8566 7.71905 28.4758
1 14.3739 19.7714 12.0521
1 17.846 25.1894 23.4861
1 20.9607 3.49206 15.2783
1 28.0332 16.7958 1.4337
1 9.1481 4.45269 3.74087
1 5.72834 26.209 3.46017
1 12.9767 6.59241 7.67632
1 11.2224 12.2217 26.8288
1 20.6994 11.4828 0.6634
1 0.953372 24.4433 1.66507
1 0.888668 0.193626 14.7389
1 17.7616 21.9998 29.2425
1 23.0192 25.7696 10.5796
1 2.04538 3.75332 14.6356
1 28.2679 29.7245 22.1981
1 30.4528 5.31501 15.1525
1 6.56944 20.1559 0.263911
1 10.9312 25.8678 21.4581
1 28.3924 1.65763 6.46717
1 2.4806 10.1009 8.8326
1 19.1436 8.99274 6.29822
1 16.9314 18.6581 0.211448
1 0.505053 17.2867 22.8581
1 10.2927 9.48269 20.7311
1 7.23723 2.73934 8.32955
1 13.6151 7.73623 9.88819
1 29.277 29.2793 15.7324
1 22.6142 17.5729 25.5121
1 11.4302 27.1015 0.456438
1 16.7745 4.24232 4.61769
1 1.6016 6.94559 21.0224
1 26.5016 21.1747 1.92841
1 22.1363 22.858 14.9387
1 15.2907 21.6875 29.0684
1 15.7601 19.3877 20.1564
1 14.4134 26.3823 30.6997
1 6.7063 18.3561 3.41825
1 21.6613 24.4068 4.48646
1 11.3248 29.9426 16.3939
1 13.1035 29.1625 3.4778
1 8.73785 8.50903 24.5643
1 22.4897 27.2295 1.87591
1 5.64427 30.3425 16.1194
1 27.1235 7.04203 23.5602
1 9.85212 12.036 9.52034
1 14.032 27.9632 5.36929
1 23.9057 14.7207 16.8948
1 23.6551 22.4611 22.2363
1 18.8076 6.95936 2.31993
1 12.5162 19.2775 26.2187
1 22.744 1.82345 11.7909
1 13.4167 9.81763 25.4856
1 3.34355 5.60787 1.06805
1 22.199 26.1797 27.6445
1 21.3866 28.9099 2.93046
1 3.64336 0.759406 28.9049
1 26.0999 7.87526 1.37221
1 13.7051 26.5851 26.0875
1 6.23785 6.731 17.454
1 16.4988 28.8243 20.5701
1 8.88066 20.1968 18.1241
1 4.15271 12.1934 18.6329
1 21.419 5.31487 17.0085
1 21.1673 22.5074 28.0507
1 8.11491 7.47707 9.43726
1 5.85993 24.2143 8.36649
1 16.7869 17.9006 29.4239
1 24.1015 29.3853 1.55266
1 21.2578 25.2953 29.4305
1 17.6243 17.8708 19.0333
1 5.10447 6.14397 24.7758
1 9.34811 2.9304 3.60802
1 18.9343 26.4582 4.41569
1 30.5053 9.7303 10.3763
1 29.6784 12.1405 1.28539
1 1.13894 30.1056 23.3509
1 27.9504 4.31415 20.787
1 7.42976 30.1094 14.0624
1 21.3972 11.2123 14.5045
1 4.12443 13.24 21.3629
1 10.9805 15.574 5.81294
1 7.35917 12.1234 28.2962
1 27.5293 14.279 22.5976
1 17.1487 5.50348 27.2438
1 22.1847 12.0277 4.80801
1 24.1639 26.1167 18.9323
1 14.9659 7.51187 1.39623
1 6.68281 3.53117 27.0902
1 0.956655 9.65523 20.1564
1 24.6371 5.82678 27.1154
1 9.28094 24.5033 6.84549
1 4.13941 4.60637 1.52343
1 17.6957 29.1506 6.58786
1 30.1761 8.75671 21.3248
1 17.6264 19.145 11.4208
1 28.2275 26.3659 7.9442
1 13.4174 11.2725 29.0679
1 9.58559 25.9858 20.8492
1 19.4266 27.9253 15.1861
1 11.1202 29.8976 7.49926
1 12.1395 25.8009 29.0846
1 19.523 14.1111 28.6402
1 22.9439 21.4046 1.04841
1 1.31437 11.3279 29.942
1 14.3239 22.5673 4.85758
1 7.28048 4.58821 24.2204
1 12.3095 16.0144 15.8167
1 11.3924 14.6987 19.8727
1 5.92198 11.6736 16.1316
1 3.66563 3.26632 22.4513
1 7.85097 13.3058 16.3701
1 25.2483 10.2943 18.632
1 5.53946 13.9574 2.94614
1 11.2291 22.2414 8.85389
1 14.6768 13.2947 9.3188
1 18.8934 9.93834 19.0015
1 22.7188 11.7323 17.1775
1 30.0733 5.5289 3.24789
1 6.63957 15.2742 3.18941
1 16.8241 24.2875 29.4614
1 12.9205 25.4273 19.863
1 26.3142 8.78053 24.9547
1 10.7376 8.25684 26.2548
1 11.3563 0.960623 4.60047
1 8.21695 13.913 12.1955
1 9.94364 12.2315 18.5006
1 15.9087 22.1602 3.09166
1 12.7003 8.79646 2.97673
1 19.5424 5.47871 25.9342
1 2.5602 5.43344 22.9141
1 10.1478 0.939844 2.56171
1 1.42434 8.3284 18.9862
1 1.31704 8.74965 28.8123
1 19.4698 6.50736 23.7355
1 8.25554 10.3095 1.45273
1 27.9386 15.6358 10.3485
1 24.6802 28.1991 2.51321
1 24.9689 2.13958 2.24968
1 9.50883 25.6181 7.81296
1 7.08887 29.7926 4.71984
1 0.814506 20.682 1.03514
1 19.8769 23.9524 7.04871
1 11.2848 8.59574 3.38101
1 17.9346 15.6624 16.8254
1 12.6113 12.6506 8.4691
1 19.7333 11.8564 7.23591
1 6.2823 20.043 13.3294
1 27.3753 16.3968 13.8604
1 27.6771 10.6944 11.8477
1 17.8744 1.89517 14.3439
1 14.131 2.24141 21.8062
1 25.6093 2.29919 12.3566
1 26.7031 13.2174 28.7378
1 17.2961 25.1853 22.1649
1 1.62625 0.510401 20.6136
1 12.525 19.5682 2.94456
1 12.7728 20.3688 19.2032
1 25.6809 17.1007 19.8129
1 14.5525 6.42469 18.5673
1 21.3864 13.6822 14.0531
1 0.449801 17.3971 16.8121
1 28.6734 28.5847 5.27986
1 9.07527 19.8739 13.6683
1 15.0423 17.0419 22.0905
1 10.6589 26.5669 3.22712
1 10.2492 29.5676 6.52589
1 10.2328 1.97882 4.99826
1 20.5181 24.8853 11.4122
1 16.88 11.7083 15.2225
1 7.68854 7.37111 2.61991
1 16.5359 13.0397 23.0929
1 17.9171 10.6182 11.5603
1 23.9649 29.1757 21.4857
1 22.8106 5.108 0.655852
1 20.7205 16.5642 11.279
1 13.6102 21.5967 8.92286
1 24.5012 8.12021 3.31822
1 30.4069 5.95631 12.3174
1 5.77266 17.5675 2.5885
1 29.4818 6.09715 21.8057
1 28.8326 14.4336 28.9974
1 18.6396 11.6413 9.21659
1 11.6203 23.2091 2.41002
1 24.4223 29.9417 18.966
1 20.0601 2.53234 25.2141
1 21.5543 13.603 2.85913
1 16.3358 27.6865 14.5044
1 10.202 27.7383 23.5866
1 2.22945 25.6564 18.6932
1 5.79533 3.64269 21.5575
1 5.49438 24.0365 5.8405
1 10.5401 13.062 21.0131
1 2.59068 24.6627 23.208
1 3.31658 0.715307 0.994284
1 17.22 22.7807 22.3672
1 2.74644 6.05744 21.7124
1 4.97574 5.00753 19.7815
1 21.5807 10.888 28.393
1 24.7944 1.32819 6.4942
1 15.2296 5.67392 21.8461
1 17.6374 9.17513 27.6427
1 21.3021 29.4056 27.3568
1 20.3367 29.6916 18.0795
1 8.90533 27.8438 16.7385
1 2.96051 7.28292 24.7458
1 17.5682 24.0739 19.8338
1 2.61068 12.3654 9.06014
1 25.0297 17.4207 28.4229
1 23.283 28.1058 13.8723
1 2.8316 12.4208 2.97347
1 5.99527 26.8169 27.399
1 5.45711 10.5736 17.0332
1 2.12909 8.78522 5.70576
1 29.6389 8.8418 5.45725
1 20.6708 0.565767 17.0524
1 11.2857 0.643238 3.29691
1 21.0528 24.1654 12.8875
1 23.4985 21.9778 11.0521
1 15.2409 2.24865 23.0292
1 19.877 10.5776 13.0468
1 2.13578 18.3697 28.8124
1 16.4335 18.0108 25.8976
1 24.7433 21.6988 4.6548
1 19.3575 29.8284 25.8901
1 28.7991 11.1057 0.845846
1 24.93 30.5576 13.0641
1 7.99429 16.0623 11.7648
1 2.04749 5.49252 0.562457
1 23.784 18.2116 25.2734
1 20.7684 0.477479 29.6918
1 23.6435 19.7254 16.8562
1 8.5802 10.6901 5.58765
1 27.6125 23.2194 29.1493
1 3.07422 17.1505 10.9841
1 6.99492 8.20815 6.3757
1 3.40956 11.9219 29.7762
1 4.14463 15.85 17.4152
1 6.36666 2.23558 4.77157
1 27.5024 2.27192 29.9063
1 23.3743 4.6748 2.85154
1 3.67272 25.3418 3.54185
1 15.4593 1.02076 14.9062
1 2.25505 17.7278 25.8122
1 27.4576 9.58226 21.295
1 15.0628 11.3446 26.9994
1 14.4829 25.8649 11.4792
1 15.8423 26.2304 10.7997
1 9.20794 25.1309 9.31798
1 27.1521 27.9369 19.4586
1 25.9833 1.60204 17.1416
1 7.6181 19.0364 23.9915
1 12.4592 19.38 18.3969
1 1.65079 2.7823 28.9132
1 28.5903 23.5334 16.2519
1 21.5737 5.38266 26.9888
1 24.3827 26.7147 21.1802
1 10.6222 20.7619 20.1113
1 7.82197 23.4388 6.9881
1 29.1092 19.7662 9.99053
1 19.1405 8.90532 30.203
1 28.2797 18.3102 1.53606
1 30.2406 8.63978 18.1051
1 6.52358 2.21563 0.437369
1 9.42401 17.5043 5.79692
1 18.3429 0.665386 18.7946
1 2.65338 13.8019 2.45572
1 22.7871 2.89084 16.6535
1 6.08163 1.46275 18.918
1 12.6115 17.889 7.85834
1 18.1889 25.3736 16.8622
1 3.05416 0.849418 24.0053
1 22.1059 27.7553 9.56674
1 20.0476 24.4579 19.4721
1 1.88979 20.7515 23.5639
1 5.52367 8.38521 24.7024
1 25.8016 27.8325 1.51435
1 27.6237 10.7255 25.3463
1 18.0081 23.8725 17.0829
1 6.92644 4.55782 6.33417
1 17.1065 11.3627 27.1976
1 28.7352 20.0542 4.53471
1 22.6389 24.5937 22.7636
1 13.1254 29.6765 20.519
1 19.6279 24.8416 2.46612
1 15.7116 16.6184 10.23
1 15.5543 22.6392 17.4958
1 9.34859 4.38831 21.4222
1 9.09128 15.6483 22.7245
1 27.6861 21.8367 22.4006
1 15.7858 21.7952 24.1033
1 30.4118 21.4969 19.691
1 27.1203 29.0557 10.7772
1 11.5675 8.65836 20.6698
1 15.4673 5.86804 16.2793
1 16.4018 6.87861 13.8061
1 24.6049 3.32958 9.78143
1 10.7216 23.7508 8.52384
1 22.8134 7.41698 16.9452
1 3.16521 20.1683 1.01708
1 15.2007 1.81782 6.07013
1 24.5185 28.4989 9.88918
1 10.1867 19.5115 7.39789
1 13.0994 22.9928 12.2213
1 28.8705 7.87038 9.79822
1 20.0976 7.50217 13.6297
1 12.7131 5.16519 2.32377
1 6.07348 28.6314 6.85735
1 26.0357 1.12551 26.7778
1 8.26708 10.1206 9.06657
1 6.54991 6.27637 11.8836
1 21.6004 9.51643 24.9364
1 19.0001 18.0749 7.99022
1 28.3166 3.62165 8.33136
1 19.1045 11.0652 8.15978
1 25.8896 18.3168 28.2173
1 22.1526 18.826 19.8832
1 23.4306 5.51506 26.3035
1 12.6928 1.22337 14.6361
1 8.39574 25.2722 5.13797
1 26.1023 27.2831 7.63674
1 18.892 25.1216 3.55576
1 16.6091 6.56705 3.49349
1 9.39462 23.0854 10.8376
1 22.8879 24.3252 11.071
1 15.6482 8.85047 12.2268
1 18.0006 11.1015 24.0023
1 14.1911 4.73803 19.9969
1 20.8723 25.2958 3.8085
1 17.2449 10.8867 1.82241
1 7.49363 8.25711 5.28323
1 0.50375 28.1412 1.99251
1 22.0936 29.7939 12.7453
1 24.082 1.63278 11.0922
1 10.0574 6.69357 6.49889
1 5.19919 23.1042 3.38416
1 8.22598 15.288 30.3825
1 9.70125 1.80352 22.1874
1 14.7944 22.0078 9.63807
1 4.70635 2.69332 12.9112
1 11.433 4.06646 19.3682
1 20.83 0.476279 4.32752
1 12.3225 25.2621 6.66898
1 4.18028 7.78036 22.8328
1 4.81643 16.9854 12.5951
1 29.9522 15.5996 7.77221
1 10.1284 7.43268 2.70031
1 25.9351 15.9853 22.4906
1 2.84569 10.3807 16.1502
1 2.40672 27.0119 30.0476
1 9.07561 9.03711 28.7582
1 -0.0750607 20.231 7.3988
1 5.97429 21.0107 6.28175
1 20.0245 14.978 20.151
1 1.61667 10.9336 11.7724
1 17.7718 5.61697 16.9248
1 24.8238 16.0363 3.92643
1 6.53026 17.8998 1.38457
1 26.3472 5.47519 0.675686
1 14.1027 5.17806 2.22247
1 21.7204 6.24529 0.298279
1 16.5665 4.53994 13.9697
1 6.41006 20.6113 9.12082
1 5.08262 12.3989 5.84284
1 18.6468 19.752 13.9866
1 16.0137 27.5804 11.7868
1 7.17145 21.2487 25.5963
1 2.34958 1.81867 4.20855
1 16.9077 19.3365 19.1321
1 14.2568 29.064 14.8967
1 6.73651 16.1433 24.4611
1 4.04312 25.355 13.5409
1 19.8178 8.38765 27.0742
1 1.25654 20.1774 7.26658
1 18.0368 21.7015 22.9208
1 13.4949 3.24095 21.2173
1 3.15554 2.02195 18.9159
1 10.214 16.9563 4.05107
1 10.5068 16.8504 9.62304
1 22.3907 0.232729 16.6348
1 10.5861 3.21621 28.2347
1 13.9153 27.5998 20.1473
1 29.6393 26.4426 21.0083
1 22.6526 19.9624 0.689137
1 24.5806 2.12978 0.714001
1 6.9765 3.87355 3.48044
1 12.5452 30.3979 2.68586
1 10.4206 0.754329 13.9928
1 18.7732 9.25215 26.5939
1 6.12876 5.68821 1.18613
1 20.0273 30.0006 27.3927
1 0.408489 11.3714 14.2499
1 7.86934 9.913 28.9015
1 7.73492 12.5308 12.8235
1 19.4835 26.2795 24.6842
1 23.776 9.28623 22.2873
1 18.7055 5.22934 4.30884
1 22.7227 6.06254 17.168
1 19.086 20.0839 2.23476
1 11.3654 18.3121 25.8359
1 3.75426 5.40813 17.4622
1 19.2359 16.142 11.1298
1 3.04614 8.30468 30.4906
1 11.5061 18.4011 29.4137
1 5.24616 19.2032 13.1657
1 17.1804 13.1988 9.20662
1 10.0108 6.28954 18.7939
1 0.528221 6.34101 5.42354
1 23.7541 5.73311 15.8032
1 1.04397 15.8439 1.52839
1 12.0986 3.87609 10.3931
1 5.13565 4.30084 15.4228
1 5.85256 8.37501 29.4245
1 24.7297 13.3384 25.5758
1 5.98771 11.5452 6.77869
1 14.6419 14.91 22.8725
1 28.5597 3.86364 17.1426
1 27.162 0.801042 16.6082
1 15.8733 21.6387 7.38208
1 1.55697 10.2494 28.953
1 11.4587 19.6886 16.0162
1 27.7888 7.64448 3.56524
1 29.6415 9.65607 11.6174
1 2.88449 11.1373 14.9795
1 20.3291 1.20772 15.6273
1 20.914 16.0167 22.4664
1 22.1603 5.69422 6.91327
1 24.2335 19.6404 11.0718
1 28.0646 16.6679 7.42514
1 19.2812 1.81817 22.5516
1 23.0567 5.40068 23.4853
1 1.56216 7.89495 16.2436
1 10.6086 8.16927 17.6639
1 20.645 7.91543 12.2821
1 6.82162 14.2565 19.695
1 9.44879 18.5179 9.73586
1 6.59648 13.4338 22.8123
1 15.3496 21.0033 11.9364
1 13.5998 12.7243 14.2253
1 13.7652 20.9297 6.54023
1 26.5419 4.23809 14.5549
1 3.25326 28.9454 26.4782
1 22.5534 8.24994 22.0155
1 14.693 5.70603 15.0199
1 25.921 4.60631 17.7094
1 3.55388 14.8723 5.02132
1 18.1123 13.3735 17.3755
1 21.9053 12.1175 22.8925
1 18.7765 11.5633 3.71408
1 18.4414 2.76504 6.82984
1 27.3373 15.6743 25.7404
1 3.24963 29.3987 9.98714
1 17.3116 14.104 4.36099
1 23.4193 29.8398 6.56874
1 1.70466 3.51342 1.98046
1 19.4459 16.1177 19.9382
1 16.8464 26.3942 0.591916
1 4.69604 20.5302 25.3468
1 6.43386 30.0823 29.5983
1 3.93067 24.1657 19.0973
1 0.0818169 3.50201 26.2842
1 28.1588 11.7216 22.3012
1 28.9993 9.62525 7.76383
1 5.25182 19.8471 6.61566
1 20.0495 21.913 22.6296
1 28.1798 26.5269 1.76651
1 19.3707 3.90334 17.6257
1 7.52205 12.4632 10.2046
1 27.4142 3.33726 22.2016
1 26.9732 29.9921 7.70698
1 12.3487 30.0907 6.28029
1 18.7731 13.0235 9.57247
1 25.1175 4.43374 14.3196
1 3.88586 23.8043 17.3251
1 17.8433 26.1827 28.4778
1 20.0646 7.31109 21.0181
1 21.9523 22.4324 19.7373
1 7.3526 1.4374 16.4302
1 22.3173 10.4503 17.4543
1 1.95262 21.1987 25.3732
1 12.5913 16.4941 11.9334
1 19.4555 15.0662 1.48789
1 8.53214 14.7408 4.30927
1 7.78012 12.9782 2.71636
1 19.1045 9.46503 1.09609
1 25.5783 23.9407 13.5941
1 5.30745 18.019 4.12606
1 3.64708 9.2931 29.422
1 24.4183 1.60864 3.44252
1 20.1706 1.69319 19.9967
1 29.1736 10.8592 28.5049
1 4.49562 8.48363 28.1645
1 2.82258 8.75757 1.54525
1 11.0022 19.0953 12.9577
1 4.26238 15.5384 20.8359
1 20.2085 1.12234 27.4522
1 29.3201 9.6151 29.3146
1 29.9182 3.83865 27.4541
1 18.0987 8.39891 5.42393
1 3.51517 29.2611 14.2511
1 13.1184 19.0497 14.1823
1 28.1263 8.75663 7.42618
1 23.4209 21.3252 4.78388
1 13.7737 9.35613 15.2602
1 1.28489 13.7588 2.02897
1 20.2279 13.7883 23.2989
1 6.33062 27.7252 28.6659
1 6.2607 27.7747 16.5586
1 14.2719 13.4958 20.6545
1 18.0247 22.5989 26.3415
1 13.0684 13.839 29.5576
1 2.42065 27.3179 28.4335
1 9.46792 24.48 17.0557
1 4.89488 25.3105 20.3745
1 9.80389 12.3887 20.1302
1 11.8601 11.2072 17.4184
1 9.39758 7.93429 0.786534
1 23.2055 6.20276 14.2728
1 4.23409 25.9789 9.11248
1 3.79886 3.29741 5.34632
1 4.79209 13.4122 12.6367
1 8.67006 19.8719 2.7908
1 13.5439 24.0847 14.6322
1 12.3306 9.47794 16.4144
1 26.535 18.9014 10.5697
1 3.29461 4.99459 12.4519
1 9.17547 15.6415 25.5628
1 3.33509 11.0759 27.6595
1 5.2586 1.23741 17.8378
1 20.28 17.4627 13.9826
1 14.9626 16.5859 9.08524
1 25.5792 20.401 13.5022
1 21.5892 11.4598 12.3534
1 28.4839 7.45036 23.5727
1 8.93236 12.7263 24.1626
1 26.0248 18.6431 1.00737
1 9.0897 27.6908 28.3448
1 24.0009 19.5395 22.5294
1 26.633 25.0424 4.23882
1 5.11598 27.5536 26.1635
1 23.5162 4.29488 25.695
1 2.34737 20.8329 16.218
1 14.357 10.8481 13.2242
1 5.2062 18.0785 25.1609
1 27.4977 4.08782 7.10921
1 27.0706 22.1406 4.44612
1 29.9091 23.8074 19.9672
1 29.9034 20.1468 13.7964
1 14.0975 14.7487 -0.33973
1 18.9643 1.74397 12.2704
1 13.446 21.7394 16.3223
1 10.2894 13.3886 5.52053
1 25.3192 1.70749 24.1673
1 15.0482 16.9913 16.3667
1 1.9763 23.5015 4.34162
1 9.71269 10.0672 6.15479
1 28.7017 28.238 16.6045
1 3.10306 9.32173 12.6036
1 12.8374 22.9803 10.8869
1 16.1267 22.5351 21.5253
1 2.09041 15.2967 22.9674
1 23.8865 8.85121 25.0256
1 23.8626 10.7616 28.4124
1 15.6394 5.6882 14.0454
1 20.7361 10.6369 2.85419
1 21.7898 28.5443 16.3657
1 22.6094 12.441 6.24912
1 7.35438 26.678 8.58478
1 22.5592 1.75511 27.7567
1 20.6639 11.7689 25.9308
1 25.4712 17.4156 22.6949
1 28.0113 13.1651 7.32942
1 29.8299 17.3971 10.4003
1 6.84146 24.2905 27.6633
1 26.513 4.81318 15.9191
1 10.0353 7.09931 28.4275
1 3.97794 11.6741 0.641454
1 13.52 21.4595 25.8205
1 28.2153 12.4419 18.0869
1 28.8308 16.781 19.5488
1 26.6841 2.17602 27.4612
1 28.8997 0.45035 13.8058
1 11.675 6.51014 29.1126
1 9.00463 11.6589 12.1534
1 1.5705 22.7577 22.478
1 14.4956 18.2272 20.0171
1 25.4026 2.54276 16.2665
1 22.9573 9.8132 24.9095
1 24.4892 11.987 25.4098
1 8.57186 8.94383 16.1728
1 15.1803 27.4468 2.33759
1 23.7552 19.2363 0.709145
1 11.6495 27.6446 20.1677
1 17.0163 25.8818 17.6728
1 20.8247 25.5027 17.0107
1 6.42523 15.6078 6.60677
1 29.4011 30.245 8.65747
1 2.37585 19.5747 28.5723
1 22.9544 28.4332 6.30975
1 27.8864 25.032 13.0805
1 1.72124 25.2372 13.7283
1 14.5598 12.2155 13.3853
1 20.8535 16.4277 28.6842
1 17.629 18.0685 8.2208
1 11.0127 24.1892 17.2198
1 23.9158 23.843 22.4068
1 14.833 21.4645 2.34496
1 18.5027 0.391686 25.5986
1 20.313 27.1398 23.662
1 16.9284 2.96783 21.039
1 9.62796 10.5302 3.49794
1 28.1538 16.7086 22.8035
1 5.02115 2.57838 16.9722
1 28.7131 5.31873 9.78917
1 12.4807 13.8672 5.12847
1 8.90252 0.582921 26.1152
1 27.0864 0.0458279 28.8289
1 24.1248 12.789 22.9313
1 13.2014 18.4246 0.380504
1 4.05531 13.5971 18.5692
1 10.468 14.2205 12.3911
1 15.5508 28.1758 24.8733
1 0.625773 2.16865 18.7769
1 23.2367 12.2552 13.6078
1 3.97687 16.9701 26.9612
1 3.38624 0.94726 12.1818
1 26.1217 3.4721 22.981
1 13.0883 10.4352 17.1702
1 23.1 20.0614 4.19827
1 29.4475 22.2008 10.6919
1 28.9172 5.60183 2.25682
1 29.1694 0.292811 17.5701
1 9.10793 0.568128 12.0299
1 13.6104 23.9564 25.2128
1 28.0549 13.6177 25.8697
1 12.9481 14.0951 16.4074
1 26.3241 26.8415 15.4218
1 16.8905 7.78029 17.4138
1 16.2589 14.0535 5.32733
1 25.1039 9.8561 11.5295
1 7.76074 4.82694 17.2805
1 4.00305 27.1055 29.9579
1 12.2228 3.42022 4.21558
1 28.1579 2.99454 5.52466
1 15.2472 1.80216 10.4003
1 4.35804 7.1096 28.7403
1 7.65848 19.6229 17.7967
1 11.636 4.88088 22.1532
1 17.4758 23.699 27.3325
1 15.7131 29.2316 29.6549
1 1.85797 13.7664 29.7026
1 28.5666 23.344 19.8985
1 11.5001 10.8741 26.6134
1 28.7505 2.41986 29.26
1 5.14887 13.7817 29.4623
1 14.3034 5.10914 7.30465
1 10.88 10.5011 14.3244
1 15.9113 9.92946 24.5436
1 27.6894 28.8959 16.8296
1 30.0886 18.5669 16.5191
1 19.3213 0.333651 12.6072
1 22.6026 25.8831 13.8507
1 1.00964 23.8802 25.667
1 3.29202 23.7843 4.10215
1 22.2522 4.39525 22.7075
1 21.0962 14.4035 26.4027
1 23.5622 29.8325 27.1614
1 2.6557 27.6348 3.273
1 26.941 13.0279 25.6147
1 22.7178 28.3667 19.4069
1 15.4218 12.8002 28.9791
1 7.91251 11.4299 4.47692
1 29.9068 11.8205 19.9354
1 13.1417 21.2966 20.2377
1 16.3732 30.5638 24.4926
1 11.3599 3.10206 16.1388
1 14.5916 25.4533 5.62226
1 20.0494 16.7664 4.79244
1 15.5375 13.9622 25.8548
1 29.4264 15.595 29.174
1 11.6566 17.1168 10.1007
1 0.983349 5.36098 7.92576
1 25.399 28.1689 0.0738647
1 21.966 2.71057 3.48892
1 24.9193 6.90008 24.1517
1 25.2883 12.9823 28.7205
1 3.01292 23.1981 22.6386
1 1.20626 30.01 7.21401
1 14.1998 16.7488 24.8877
1 29.6709 3.77264 0.782489
1 8.09173 1.02423 10.9724
1 4.99114 21.9126 6.76422
1 8.15126 28.0091 3.66083
1 8.06041 7.10196 28.7572
1 26.9699 15.1569 4.68073
1 12.4607 8.8812 0.854429
1 5.60934 16.0483 2.53134
1 24.6121 3.77423 18.2461
1 12.8675 7.49306 5.112
1 1.59394 14.6014 4.92534
1 21.5042 24.3198 22.1997
1 17.0663 21.4187 10.6975
1 14.626 7.60374 6.41276
1 1.56553 24.9247 29.7885
1 28.4774 1.58964 17.9791
1 22.3424 23.7209 20.1234
1 12.5695 19.4822 8.49221
1 30.099 23.6415 10.674
1 22.7402 25.6209 30.0789
1 1.69703 10.9308 5.29548
1 25.6177 29.2805 24.077
1 11.0702 28.7359 15.5415
1 27.777 21.2741 13.6091
1 11.2556 14.3138 4.98615
1 6.07705 2.48053 11.4538
1 4.39192 24.8169 26.9337
1 2.68098 17.5419 1.45035
1 13.8143 9.28582 28.1931
1 21.1299 12.3617 20.0871
1 15.8243 1.99949 13.9552
1 27.7137 4.14149 24.5092
1 7.33512 24.7978 9.42359
1 7.2164 28.5053 20.341
1 1.16843 21.486 22.6793
1 21.0079 2.23993 14.8455
1 13.3816 26.5919 1.18843
1 7.96495 17.5547 25.9048
1 19.5029 5.65667 3.02518
1 12.4606 7.45028 1.15045
1 23.3357 7.9855 11.2843
1 20.2759 6.07747 21.754
1 21.8607 22.0305 1.33566
1 20.1707 14.3995 7.08259
1 23.633 1.6826 9.18884
1 2.05719 29.5569 21.2046
1 1.10368 1.4847 3.21513
1 6.98291 15.8388 0.136285
1 6.45429 17.4789 28.8897
1 24.588 3.60498 13.3616
1 20.9423 10.2982 12.2546
1 0.25059 25.879 23.1183
1 10.4138 18.4918 3.73296
1 13.8652 21.1201 21.6495
1 29.1208 2.88416 3.38324
1 12.3077 8.28565 19.7384
1 1.36311 24.4178 16.4155
1 6.26983 8.9989 26.8487
1 17.1544 27.9196 28.034
1 9.50706 14.707 27.8539
1 21.6119 20.2291 25.1339
1 26.9115 15.997 28.6751
1 22.9457 23.8979 1.39184
1 24.9736 23.8429 25.6001
1 25.9756 10.7358 5.07064
1 18.8946 18.2669 19.4469
1 24.3504 8.63096 27.89
1 17.5636 3.14979 29.1726
1 5.0798 3.67712 27.1446
1 2.37378 9.20533 18.1386
1 2.14133 0.573243 29.115
1 28.2583 5.75616 13.7053
1 22.9993 1.31436 3.45504
1 29.7577 26.8342 14.9716
1 12.7664 26.0483 9.32934
1 3.38823 11.4812 23.6503
1 17.0203 -0.285502 26.2455
1 25.7773 3.45717 28.1187
1 10.3019 4.69348 28.8676
1 5.09275 22.0259 25.5472
1 18.6846 0.726025 8.30433
1 23.5921 2.72208 20.5326
1 5.86466 18.914 0.648399
1 10.2897 23.8303 28.8697
1 26.0118 7.36784 5.24406
1 15.435 5.93353 10.3133
1 2.439 13.7749 14.4891
1 26.7015 27.0663 17.7625
1 26.7108 12.2511 22.0725
1 6.15333 30.544 2.09803
1 24.1705 1.92973 22.1004
1 6.37246 26.996 0.413197
1 6.83508 12.1095 1.85978
1 12.8631 21.2268 15.0325
1 9.1748 14.6054 12.8439
1 2.96048 17.5209 23.054
1 10.5732 10.9057 23.7332
1 11.5189 13.4289 8.18865
1 2.80584 13.3597 26.6344
1 0.204029 1.66173 5.42281
1 18.1164 4.59687 14.2215
1 27.2859 1.09762 20.5786
1 11.6691 16.5312 23.8179
1 5.11718 22.6045 26.7775
1 11.7174 11.3097 3.39785
1 8.01049 10.1715 10.3945
1 25.3268 1.37763 29.9867
1 29.5469 26.2665 8.37049
1 4.72674 21.3255 16.5017
1 20.403 20.5007 22.0712
1 16.5948 9.11959 0.597576
1 21.7169 23.3016 1.51257
1 0.366469 24.731 17.2929
1 21.0066 21.4647 8.06661
1 12.1205 22.2292 3.14957
1 17.1613 20.4516 25.9763
1 18.4393 16.0273 13.9053
1 6.01748 2.53098 24.8532
1 9.786 6.33142 21.8759
1 17.5514 0.340871 24.1759
1 5.14344 8.25453 13.3564
1 15.3914 21.5919 18.808
1 26.4305 18.4089 22.6428
1 14.6917 16.6873 28.1452
1 9.89885 28.9986 18.6062
1 11.5127 8.08407 14.2868
1 4.14479 27.557 23.2151
1 0.850877 29.4473 10.1629
1 20.4948 25.8918 14.6218
1 13.8578 28.8868 17.1113
1 27.148 0.978977 9.66909
1 3.455 18.7348 7.4791
1 4.02035 29.9556 0.380064
1 25.7511 29.2742 12.791
1 13.4782 24.3814 13.0084
1 15.7297 1.89243 21.6815
1 5.50391 9.65294 8.50677
1 10.5518 2.11296 18.4566
1 12.0722 27.0811 29.4162
1 17.3263 24.9642 3.70963
1 9.84529 7.51906 27.1095
1 8.48598 22.0987 28.836
1 4.01292 0.681618 23.0107
1 10.8161 27.3195 10.4685