4096
Atoms. Timestep: 740
1 27.0859 19.231 11.8216
1 27.939 9.99822 14.7755
1 11.6299 6.06129 22.8333
1 15.4151 7.06559 11.6499
1 29.0128 21.8838 8.53025
1 10.1186 17.5744 30.2985
1 0.359734 23.6484 6.97278
1 12.7269 22.5291 29.4153
1 7.29195 16.7831 22.2486
1 14.2205 19.5324 4.81135
1 6.36676 21.4269 5.21638
1 24.3678 26.3963 10.3147
1 27.0595 17.6 15.8152
1 29.2066 3.13755 5.13936
1 27.799 14.8241 8.88707
1 26.4415 1.84236 12.7686
1 29.1375 7.49058 20.8351
1 10.1653 4.89545 19.9279
1 13.4071 4.56231 8.35051
1 16.8946 8.3884 15.3494
1 8.31847 9.84216 3.94952
1 21.9504 18.9162 18.1764
1 5.42643 30.3936 6.40152
1 28.8058 13.3823 21.1976
1 9.43506 17.3252 20.6326
1 18.3439 14.8797 3.39045
1 24.5535 30.2225 27.819
1 25.9409 18.5771 4.3836
1 25.4094 8.50603 4.43343
1 14.0944 20.2888 25.5244
1 3.84446 14.1976 29.2337
1 18.7173 10.6831 7.52296
1 19.7769 3.3172 23.1781
1 10.3295 19.6414 1.06963
1 21.0873 3.9707 10.3255
1 11.4689 15.9782 2.9551
1 2.7116 27.8187 12.9763
1 22.0866 3.33979 1.09131
1 21.9723 27.45 16.8843
1 3.48435 6.00125 6.86443
1 17.9879 2.69993 20.7329
1 5.15241 3.97664 11.3079
1 15.3589 24.2294 15.6876
1 3.69932 2.01883 6.56427
1 19.9806 14.0592 7.16854
1 25.4277 25.4842 4.62822
1 14.8582 17.2488 17.4539
1 12.6669 7.79357 25.7363
1 27.485 18.8623 17.7997
1 26.2559 24.5751 12.9295
1 13.5361 11.4588 1.6532
1 24.3028 11.1418 10.0526
1 22.2569 0.608129 5.8235
1 8.21442 25.1427 22.0447
1 16.6147 19.3395 12.6052
1 27.9065 11.5329 25.0334
1 15.0326 8.60507 24.5797
1 5.71039 7.23216 2.92275
1 19.7692 10.7622 17.8193
1 1.73462 28.6879 14.828
1 13.6321 14.9521 30.1075
1 23.1949 3.8972 28.7289
1 15.4663 5.56863 5.77973
1 2.18537 24.0693 8.97269
1 21.9738 12.4121 26.7929
1 6.93185 8.99386 20.8089
1 27.815 23.5437 30.0112
1 12.6916 11.8406 22.7601
1 12.2606 5.57547 20.8771
1 17.5686 27.0517 13.9056
1 28.3644 17.5842 9.21271
1 22.3438 19.8201 19.4528
1 12.2027 21.9793 6.43446
1 23.2669 16.9232 26.8063
1 26.5524 23.9674 15.3198
1 2.80508 27.9346 17.835
1 18.1421 23.9638 6.64982
1 19.4986 23.8761 6.30833
1 3.4761 23.2986 27.7878
1 4.77869 22.2134 7.29764
1 12.7153 29.3173 14.7068
1 9.68944 19.6486 5.68055
1 18.5895 26.1082 2.21206
1 11.3028 11.7152 20.8297
1 25.8253 29.6508 15.2386
1 23.7916 26.9675 19.8229
1 17.2637 23.0956 6.32115
1 18.1952 24.1672 20.735
1 25.1716 21.5148 15.4469
1 29.1526 28.3044 0.325153
1 5.43242 29.7845 8.69657
1 10.7098 9.16071 7.48812
1 4.72456 26.4724 6.4225
1 21.6088 15.323 25.3329
1 3.32195 18.4502 21.1524
1 13.4682 27.9175 9.87502
1 16.2121 5.53309 28.6858
1 20.7686 18.5116 23.462
1 30.377 28.0371 5.80878
1 16.9356 28.0723 1.44635
1 8.24104 27.9619 6.81771
1 12.5984 0.247837 13.6171
1 8.46837 7.7363 23.5956
1 5.61708 26.0972 28.903
1 21.8038 12.9556 1.35271
1 19.5402 27.2142 12.9476
1 9.93383 27.6719 7.52375
1 1.85671 10.2977 21.0092
1 19.9777 0.885274 24.5002
1 3.14886 24.9912 8.74281
1 17.1292 10.7678 9.46264
1 1.1581 17.1807 4.0549
1 3.83302 6.2415 9.37744
1 27.9714 21.0873 19.2948
1 29.1995 24.9583 14.4557
1 28.1234 14.7192 6.27636
1 2.71153 24.936 7.02729
1 18.2689 21.6485 20.962
1 5.18323 11.9887 26.7228
1 0.650244 15.2048 7.66157
1 18.844 26.3235 21.4146
1 8.02052 15.672 17.9877
1 5.28755 25.8461 11.7525
1 24.544 16.9037 19.3887
1 12.3966 28.5973 1.88056
1 22.7043 18.1788 12.1636
1 7.53921 14.247 18.6797
1 15.2864 14.8248 5.37594
1 25.6522 18.2757 15.8292
1 7.95262 24.3655 19.7283
1 7.02369 30.3502 24.5549
1 22.7056 21.1929 8.09726
1 10.0661 14.6699 29.5631
1 2.18697 29.4177 1.73385
1 10.0398 24.9704 16.3176
1 8.66042 9.06149 23.773
1 6.77418 3.53959 25.7627
1 12.0095 8.96595 25.1967
1 15.6825 14.4918 8.96717
1 11.159 0.987514 6.22516
1 4.17589 28.3601 7.08816
1 24.7691 21.092 4.29064
1 21.4746 23.8668 14.976
1 30.1819 15.9426 30.3504
1 0.64093 12.9423 23.8123
1 19.3455 26.2531 23.6042
1 2.70927 22.12 6.28164
1 3.65271 29.4741 19.1033
1 5.23325 19.524 18.4772
1 4.30106 9.66457 11.1182
1 7.36611 5.60865 20.5063
1 20.48 20.2801 29.927
1 22.0318 8.98299 3.29512
1 13.3422 2.46268 2.54045
1 8.53833 12.6376 21.8895
1 24.1798 6.60807 15.9607
1 3.38463 29.097 15.2716
1 6.82748 27.5517 23.0797
1 5.22265 10.1911 2.27824
1 16.9782 19.4036 7.63896
1 10.8529 9.06333 6.13354
1 29.7866 9.6235 10.4192
1 12.295 6.57415 19.9051
1 27.1306 21.5764 23.782
1 24.4356 19.6773 18.5659
1 19.3104 22.4198 0.361618
1 26.5729 19.7429 20.5109
1 22.561 2.82558 27.527
1 27.4228 19.7626 0.971296
1 14.9862 8.17698 22.0656
1 12.2935 10.9899 17.0055
1 9.28041 15.8267 1.36515
1 21.6808 8.63018 10.4535
1 7.82634 14.054 0.669707
1 20.4656 3.9072 26.8415
1 10.9367 11.2964 4.41527
1 6.34302 27.7546 11.4632
1 4.37349 7.56096 9.39179
1 1.05296 25.2095 16.038
1 10.3083 20.0476 13.858
1 4.13021 14.2802 20.9265
1 6.22163 16.4483 6.37972
1 10.3379 6.7378 11.7205
1 14.8313 30.302 4.24079
1 29.0363 13.4445 17.2911
1 17.7903 29.192 27.8059
1 21.9762 3.42812 22.6344
1 4.63863 7.16141 20.6947
1 27.1917 20.0897 28.4066
1 23.1941 25.7235 23.4763
1 25.4768 29.0641 11.4131
1 25.6856 17.6439 28.7944
1 7.61092 14.5174 16.1032
1 15.0286 7.29922 16.6063
1 20.743 19.1587 20.365
1 13.6524 13.9408 25.2589
1 29.2101 7.27133 19.4706
1 26.7328 24.9062 5.27106
1 23.54 26.2094 29.3025
1 26.8144 0.12819 5.99173
1 4.86601 5.64058 1.56038
1 9.43411 17.4401 9.15184
1 0.725791 0.701305 13.8528
1 21.0453 29.3552 15.0467
1 17.112 29.1441 17.7282
1 20.198 29.229 28.7619
1 3.39879 18.5004 15.9783
1 19.0291 30.1774 0.475246
1 30.4065 20.5958 29.2771
1 20.3346 23.2801 19.4974
1 4.38523 27.4296 19.7216
1 18.0094 15.6137 20.3649
1 14.2182 2.12878 19.9993
1 5.68271 29.153 27.111
1 28.144 11.0821 10.9649
1 23.8622 8.12868 10.3179
1 3.09128 16.8343 1.12443
1 12.8327 17.302 9.75786
1 15.4755 19.9581 5.69767
1 27.2783 24.0229 12.2186
1 20.1567 18.2737 25.892
1 23.3988 26.0088 9.50466
1 6.11486 25.9855 17.3831
1 19.1829 5.51004 22.7415
1 0.917673 26.8506 19.593
1 12.2825 9.84107 29.4376
1 21.9342 15.0203 5.1896
1 2.33231 21.4941 7.6712
1 24.1287 25.1628 5.6362
1 13.8772 3.17648 15.666
1 15.0315 14.2212 17.8793
1 2.14806 25.9695 16.3068
1 26.3998 26.1809 10.9006
1 28.9568 9.65508 19.9828
1 18.514 8.58784 13.3099
1 29.3051 26.241 4.76486
1 25.9586 1.07465 6.54966
1 1.54622 15.757 3.98775
1 9.72083 8.79646 5.21056
1 27.2556 4.53988 15.2223
1 9.88504 5.37405 29.0692
1 7.09281 5.14962 13.0235
1 7.92374 2.89609 23.1799
1 28.6438 4.97157 0.748713
1 20.2738 23.7152 3.70943
1 23.5752 19.0776 24.3062
1 4.453 5.22704 10.5209
1 9.29978 0.894599 9.91623
1 3.54677 21.8798 18.3133
1 23.2596 26.4838 14.9767
1 8.38606 7.30591 22.0922
1 27.1937 20.8939 20.896
1 23.9981 20.5641 26.4191
1 9.18919 7.33615 12.6255
1 6.56434 24.3719 2.69682
1 14.8449 11.5243 8.72662
1 20.2707 8.64466 11.4552
1 19.8785 30.4006 28.42
1 21.3589 6.28596 17.3737
1 13.929 20.9283 21.9611
1 18.8944 29.5463 23.0233
1 6.15187 1.54356 10.5687
1 23.7747 2.04844 6.69732
1 23.0935 5.65701 1.24502
1 8.55101 21.078 1.93889
1 8.47468 19.328 15.3971
1 11.9074 12.5706 25.2622
1 12.4953 9.28316 3.37557
1 22.235 15.2647 24.2542
1 16.0423 15.3224 6.68841
1 25.454 9.84982 17.2005
1 1.45744 13.1609 8.05941
1 9.29529 16.4227 29.9513
1 2.88319 3.28562 12.2048
1 11.2611 10.7267 15.8417
1 27.84 24.5516 3.26642
1 29.7774 0.929501 26.689
1 21.898 4.56545 13.7935
1 9.16679 27.283 26.0594
1 17.2912 26.0276 26.8193
1 12.468 25.0826 4.26978
1 12.0553 27.6932 10.5649
1 4.48275 8.25631 25.9932
1 7.3455 7.53094 4.53797
1 17.4361 26.0484 4.82402
1 4.39802 16.4557 15.6905
1 14.8974 21.7787 3.74724
1 6.57184 4.42874 28.0773
1 2.7259 4.51662 11.0818
1 6.97933 28.5616 14.217
1 1.265 26.0522 3.70229
1 26.3328 10.6228 17.879
1 16.1852 10.2849 19.7016
1 25.6169 8.3482 27.1776
1 24.4908 18.4597 10.4627
1 3.73729 20.819 7.33906
1 15.61 17.6407 9.81247
1 22.112 6.00481 27.5067
1 26.2785 9.88145 21.1362
1 7.27466 21.9336 3.16878
1 9.00756 15.0977 7.40698
1 6.46118 14.3442 1.1164
1 20.9601 7.09041 28.7467
1 17.7912 2.04785 12.8301
1 28.9911 2.40984 16.1519
1 12.423 14.3601 10.8862
1 14.0377 10.0917 20.2522
1 15.9891 20.6592 10.9139
1 1.45602 27.2737 17.1423
1 9.46248 0.847487 27.8537
1 24.6231 12.5097 14.4744
1 28.9427 4.50964 24.7837
1 16.5708 11.4434 26.4449
1 19.3196 19.4534 26.4282
1 15.8955 16.2931 11.5763
1 30.3073 26.2029 20.4641
1 2.32544 28.8769 8.79159
1 8.57007 21.2229 26.8887
1 17.7043 1.41999 4.64161
1 8.96382 1.89878 15.8474
1 9.42132 25.8975 13.7432
1 27.8352 29.2839 18.7233
1 19.7525 18.8358 19.0175
1 11.6442 14.871 26.1559
1 20.8296 9.65062 24.1899
1 27.3949 24.9557 27.0609
1 18.1347 10.1578 8.88145
1 7.7759 0.701723 2.24772
1 0.317796 28.9923 6.71812
1 28.4236 21.7118 23.1657
1 13.6823 8.07055 9.8909
1 27.9507 12.5503 22.1933
1 8.11995 28.5087 29.0072
1 13.3894 25.6929 23.7766
1 8.51438 2.13985 30.4162
1 2.42109 8.98766 2.45678
1 17.0749 4.35707 1.33932
1 4.60412 14.5887 23.2665
1 12.5042 5.33171 13.7619
1 4.70089 4.16039 23.969
1 24.7883 11.54 15.2995
1 4.96324 9.56689 30.3586
1 26.5262 18.0549 11.0546
1 20.2954 10.3477 0.556782
1 20.6556 20.4462 16.742
1 9.72307 6.67158 0.635052
1 10.3898 7.65588 24.7908
1 9.16923 24.0809 28.6859
1 7.15999 19.3009 26.649
1 17.5309 18.262 24.3875
1 17.692 24.2511 16.7825
1 15.9387 10.3097 28.3704
1 28.3167 13.5102 1.45015
1 4.85288 27.3572 14.0862
1 27.8704 6.03968 7.95472
1 8.49001 8.74567 6.03525
1 19.5638 3.75278 8.55537
1 16.5474 28.4526 24.8264
1 1.41476 26.4219 8.32951
1 7.40011 6.92476 7.40432
1 22.8058 16.6125 16.272
1 18.4879 26.8115 26.884
1 7.67787 23.5002 26.5183
1 25.0433 6.92633 1.42014
1 8.12451 28.1222 16.4362
1 13.1223 26.4755 13.3883
1 2.47725 6.89775 30.1122
1 17.0364 20.3511 3.64935
1 20.1071 29.6783 24.3467
1 5.84812 20.6014 29.5076
1 9.11683 30.0765 7.53828
1 29.7795 22.8369 3.29992
1 12.4745 9.02296 18.5438
1 6.57042 2.29224 23.3697
1 25.3171 7.5225 23.2504
1 9.59326 5.51205 24.1095
1 12.2325 1.6499 10.7706
1 17.3823 12.2814 18.3435
1 12.617 21.0665 0.69512
1 22.9246 14.86 4.21022
1 23.4061 7.81928 21.7941
1 28.9063 16.1639 19.8009
1 16.7941 5.86934 13.0214
1 22.346 17.506 4.5204
1 23.1176 18.4312 10.802
1 20.075 21.5524 12.7907
1 13.8794 17.4943 11.725
1 2.86133 29.5539 5.16515
1 24.8997 10.1091 10.8534
1 26.5696 29.3072 9.12191
1 25.3907 16.5343 20.5628
1 14.5448 26.0279 18.4191
1 19.0532 24.6647 15.0508
1 23.4219 29.1051 7.0298
1 0.851188 18.323 24.7421
1 13.279 24.9015 6.35575
1 8.14464 19.1498 22.0474
1 8.98711 28.8856 15.2408
1 4.25941 23.8794 24.565
1 24.4798 23.8158 23.0331
1 11.094 19.6365 17.9083
1 27.7917 7.21965 17.1929
1 23.7373 4.91683 9.93535
1 2.09006 3.95025 20.6099
1 0.349783 19.3943 29.9446
1 12.5311 21.5532 28.4761
1 29.7693 10.58 16.7416
1 25.4219 10.1813 25.7102
1 26.8401 16.3171 24.8704
1 13.903 27.216 12.6071
1 7.72802 23.2148 3.03232
1 6.27607 23.9949 13.1118
1 11.2777 22.0438 11.0403
1 18.2643 5.41766 4.67828
1 25.7069 8.43023 13.232
1 10.0643 7.91205 7.97961
1 23.4112 3.42548 1.83896
1 8.77853 21.4993 19.4294
1 19.7774 7.40139 7.60748
1 8.01423 20.9489 25.0339
1 2.44072 16.983 12.8757
1 9.41842 9.41446 24.7149
1 5.18684 27.52 3.48839
1 1.61124 9.89596 7.40086
1 27.2225 1.21227 13.9883
1 0.192067 24.3627 17.0126
1 20.0656 16.7319 0.497522
1 7.40599 20.6293 15.9534
1 25.0366 1.41908 24.506
1 8.90418 12.6127 4.26631
1 16.6461 11.5322 7.03664
1 30.1324 6.16099 9.3792
1 14.0885 0.309608 11.3496
1 12.0699 30.2646 5.76686
1 22.9963 11.1032 12.5681
1 8.677 23.4113 29.7966
1 6.23229 8.84803 9.94232
1 12.1416 25.2365 16.2843
1 6.56703 8.12189 3.66055
1 14.1389 1.09664 22.1698
1 6.1417 0.384755 13.674
1 19.8842 17.509 19.4913
1 30.3769 0.350556 4.98718
1 4.65838 24.2581 22.1255
1 7.49414 10.8924 6.27287
1 4.8319 1.36449 13.7438
1 0.639238 25.7123 21.731
1 29.533 21.1444 21.0317
1 28.858 6.71781 3.13797
1 13.1798 30.3183 24.7645
1 1.27683 12.5196 15.2804
1 1.44971 23.0655 20.3277
1 20.8214 26.9604 13.3563
1 8.3306 8.52677 20.8954
1 15.6576 9.71038 1.75669
1 4.69925 18.2574 23.0464
1 17.0155 11.3783 22.3902
1 5.67086 10.6267 8.1871
1 20.2741 6.95924 20.2852
1 26.4592 4.70037 12.7602
1 10.0049 26.4865 16.6316
1 25.0641 21.2373 24.1325
1 0.352509 29.386 17.0042
1 26.1316 10.6623 30.0187
1 15.724 7.74352 20.0614
1 6.32681 22.7941 20.2079
1 20.491 14.6197 1.96748
1 4.80354 0.708062 25.1043
1 29.9583 23.187 30.169
1 20.979 24.518 11.3954
1 15.5122 14.257 16.5874
1 27.0041 25.5788 2.71963
1 27.3911 5.59765 9.30901
1 28.3571 1.30607 21.6285
1 22.4666 27.8449 0.986758
1 10.1778 12.6983 3.81669
1 26.7704 20.3923 29.6632
1 11.8657 23.8707 7.99353
1 26.5597 8.45757 20.9329
1 15.8781 17.9962 3.66439
1 4.4262 2.38657 17.2524
1 25.5232 2.547 19.7212
1 6.02316 25.3222 12.8598
1 21.6624 19.624 3.71583
1 18.7097 19.6842 27.5298
1 1.48933 19.8958 22.0796
1 22.5035 12.2871 21.5921
1 4.89024 12.2148 17.1391
1 7.03026 1.33239 8.20107
1 22.3784 28.4855 9.8788
1 2.86046 18.3301 7.5359
1 17.5456 22.091 11.3452
1 5.52994 14.6306 9.89533
1 26.3854 7.88164 14.2369
1 0.432969 14.4151 20.7225
1 0.689961 12.0019 11.5987
1 5.82312 9.58441 10.8663
1 28.0075 0.153982 22.7508
1 20.96 26.8017 8.10372
1 13.5603 4.8553 17.4853
1 11.2509 23.5518 0.522
1 8.17313 19.0824 30.1106
1 11.8244 27.4998 4.14844
1 15.3099 2.74369 13.5939
1 5.71795 5.30727 8.31216
1 14.9293 15.464 15.683
1 29.6718 4.5499 20.6203
1 8.89276 27.834 24.1085
1 27.8921 10.5944 30.1678
1 22.4922 29.6323 13.1266
1 17.4414 14.9544 7.02322
1 4.14063 6.90436 6.35666
1 12.714 0.57287 1.6268
1 7.131 27.8583 29.8973
1 8.74047 17.8768 2.31987
1 30.1183 10.9005 14.4341
1 29.4996 24.9332 28.5998
1 3.58269 7.57972 0.230321
1 19.3091 7.34955 28.2779
1 23.6107 6.82729 17.6202
1 25.6673 27.9154 24.7853
1 2.0547 15.7854 26.9571
1 26.17 5.61278 14.8826
1 26.9356 29.6575 4.41821
1 26.9089 19.5681 7.82388
1 14.2486 28.5423 12.3298
1 17.3751 13.8844 10.4897
1 14.1485 7.51553 26.2394
1 4.92811 5.46303 23.8243
1 16.5848 1.76295 1.12021
1 12.829 3.4291 7.96599
1 21.8588 25.2039 23.3541
1 4.64368 15.0921 4.41417
1 24.3368 11.6951 19.4978
1 1.11317 4.93498 24.4795
1 30.0357 16.4223 15.5229
1 2.71678 27.3661 21.538
1 13.18 25.9488 8.1313
1 7.81706 29.2662 7.07894
1 16.4553 5.06029 6.88149
1 17.27 18.4591 13.6757
1 12.9044 19.675 10.4612
1 16.9366 25.6115 9.79815
1 22.2316 8.51923 17.0486
1 4.9029 30.0178 27.6578
1 27.2065 16.6693 12.1242
1 20.9416 1.23455 12.0339
1 4.21155 11.3022 4.84703
1 26.5943 21.2757 1.92967
1 6.80843 17.8093 7.23051
1 9.43186 7.36616 3.12412
1 29.0917 10.8455 15.3952
1 15.5477 11.5651 22.5079
1 11.0843 19.9959 22.405
1 16.0644 15.3972 21.2515
1 28.9155 27.6482 16.2369
1 8.05911 3.63451 25.5132
1 0.835037 3.94398 30.3387
1 18.9989 29.2395 20.1724
1 10.0691 3.31026 17.4987
1 24.0957 21.8658 1.06939
1 0.681264 23.3165 19.1216
1 11.8335 11.9131 12.2645
1 6.8961 5.9005 10.9089
1 16.3832 1.36809 2.49491
1 9.7804 10.1423 9.28931
1 7.92629 6.82195 26.8735
1 15.4004 0.576204 22.1864
1 25.8159 20.8857 25.5369
1 8.79757 26.1306 28.8405
1 1.97788 3.18505 26.1597
1 5.41121 23.4272 20.9712
1 3.13576 24.3331 14.0776
1 29.4556 5.86795 29.9835
1 22.0775 4.24986 29.1843
1 26.0036 26.6181 8.35552
1 15.8723 12.6438 6.26419
1 11.7107 17.0912 3.89346
1 13.1724 9.09348 4.61536
1 28.1128 26.399 26.7408
1 3.91831 3.66168 22.9489
1 12.0228 11.7554 13.7327
1 13.7898 28.9414 22.4614
1 23.3442 23.3606 29.4583
1 28.3657 11.815 29.6242
1 27.9624 21.48 26.1406
1 15.1473 27.092 14.8738
1 16.4548 8.38338 6.59134
1 2.87124 4.02449 5.34331
1 29.4243 10.9606 3.95145
1 21.2125 6.19027 29.8656
1 29.4061 0.337489 12.1134
1 6.47884 3.50679 11.6012
1 30.3375 18.2774 10.9534
1 18.1998 12.8414 12.9076
1 4.67414 16.7521 1.18133
1 11.178 29.7453 19.3013
1 19.2303 24.5033 13.5048
1 23.9758 28.6613 2.70464
1 12.5361 30.059 9.6449
1 21.1751 3.17738 29.7244
1 11.0229 9.64372 27.5664
1 23.965 4.66445 24.283
1 16.1977 12.5461 15.0481
1 30.0788 25.0317 12.503
1 23.3934 5.61063 8.59029
1 3.36568 6.3254 3.56579
1 25.1795 11.6467 24.9945
1 9.03731 24.734 18.9699
1 5.1251 23.7787 3.03854
1 3.63931 4.81297 22.016
1 28.6358 0.83805 10.3022
1 7.50809 27.5428 12.2897
1 24.5815 25.3243 17.0804
1 9.26423 12.4428 12.4902
1 18.1726 1.01012 26.8043
1 13.6645 10.8007 16.3999
1 23.5279 23.7221 20.9227
1 10.1236 13.3613 1.48633
1 14.0599 7.29176 11.1137
1 2.57101 18.1075 10.075
1 2.23979 27.3595 19.9033
1 25.061 18.9289 9.15591
1 4.01634 10.6764 28.2983
1 1.76095 1.34802 15.9923
1 16.1222 9.52113 13.0387
1 10.1929 21.6908 24.5454
1 2.00807 10.207 15.5479
1 29.6298 27.3778 2.90307
1 5.15382 22.9017 14.5505
1 26.0292 24.5439 6.43222
1 11.1904 22.841 29.6558
1 27.4364 22.0772 14.0009
1 18.3461 15.4164 28.1459
1 7.44643 15.5029 24.9934
1 20.2843 28.003 28.0341
1 23.2815 26.3194 13.7267
1 27.7432 0.918099 8.95302
1 10.0848 22.41 4.48871
1 17.2575 14.6016 27.3496
1 6.23463 0.517666 15.1117
1 13.9574 26.811 17.4999
1 3.85288 15.6912 20.4811
1 12.4863 16.939 11.1986
1 8.76566 19.7347 28.7953
1 26.7259 24.7114 10.0848
1 4.71417 3.18888 8.94633
1 8.23452 13.8475 23.601
1 24.1616 2.16654 12.1679
1 2.09079 30.3249 26.9488
1 18.5573 18.3484 21.7535
1 4.90452 2.4403 12.8479
1 23.7502 29.3981 30.2958
1 3.8415 10.4527 15.0464
1 8.761 21.3183 13.0675
1 21.5682 1.73233 9.48536
1 18.4033 2.03107 29.777
1 11.8631 7.16968 0.756198
1 29.4415 23.8743 13.4594
1 22.099 5.07103 3.60663
1 9.52865 4.88619 22.7914
1 12.2328 5.38482 15.1927
1 10.2705 0.408268 19.6341
1 18.6373 24.5891 17.8033
1 1.84782 14.7505 20.9717
1 11.3378 27.4458 24.566
1 7.95101 23.7245 22.2281
1 13.3152 17.3701 15.7752
1 29.4861 25.4523 8.13108
1 5.89258 3.42176 24.0784
1 25.8059 14.0781 16.173
1 23.7491 26.4419 27.7306
1 25.9319 21.8604 23.2048
1 11.5739 19.481 10.9497
1 2.14159 25.4505 30.3271
1 30.0018 22.0802 11.5015
1 21.8743 5.4467 20.5931
1 26.4506 19.647 18.0202
1 15.6044 17.0394 6.16693
1 25.3145 4.19824 24.5636
1 26.1299 12.0932 4.65538
1 2.38944 24.3769 2.27145
1 24.6095 21.7036 10.9212
1 12.9508 4.26443 26.436
1 6.36002 23.7478 10.4313
1 2.40528 14.0818 18.8332
1 0.48511 25.9419 7.40804
1 17.8055 16.9624 19.7721
1 6.27485 1.21196 18.6675
1 15.7054 4.6801 9.12284
1 25.8992 23.3172 22.8231
1 23.0168 14.3865 14.4032
1 28.762 9.06034 26.4753
1 7.12837 16.9378 14.0164
1 28.855 23.3979 20.3306
1 25.6122 23.5987 1.53148
1 26.5261 16.3227 4.95758
1 18.566 4.93715 14.3058
1 23.6297 22.032 19.2249
1 17.93 14.5063 8.23216
1 30.3114 26.6214 6.29308
1 3.84075 17.1276 28.1836
1 6.34158 5.57733 24.172
1 4.87885 27.1293 11.6603
1 27.1857 8.38693 16.5048
1 18.521 4.07216 16.3659
1 8.01678 9.60247 15.8489
1 4.28974 13.2839 12.0055
1 8.85525 13.7067 9.5082
1 9.20422 27.8258 1.56281
1 7.78195 25.5653 4.84947
1 16.0422 6.42842 24.989
1 11.7511 2.39104 28.126
1 17.9914 16.1062 29.3497
1 0.540188 1.25501 21.944
1 22.1635 16.4976 5.85652
1 8.29062 12.1171 14.8876
1 16.7812 20.6106 13.0426
1 17.9812 24.2147 12.804
1 3.59276 13.017 28.2656
1 6.79228 28.6136 5.15791
1 10.4272 16.4181 2.15928
1 16.6729 25.1498 15.3851
1 10.8423 26.3492 14.2441
1 0.275375 8.95152 4.75295
1 21.1459 30.1268 12.411
1 29.3736 17.3458 27.046
1 20.9391 9.31001 20.4519
1 7.2323 17.8343 23.4613
1 19.8845 14.197 16.8474
1 12.7922 12.8765 11.8968
1 7.00471 17.8184 19.8982
1 19.196 14.2046 18.0691
1 26.8892 0.215651 23.3228
1 7.62572 8.88601 1.56586
1 4.59556 3.86816 29.8581
1 4.63366 21.3241 29.9756
1 26.486 10.9273 9.07252
1 15.7367 16.0548 29.2837
1 1.82234 2.39082 10.0742
1 18.0122 0.703195 30.0576
1 7.383 11.7343 17.2161
1 6.24962 11.2359 19.6683
1 5.36195 16.5129 18.649
1 7.18657 12.424 6.04676
1 28.9128 20.4352 8.85407
1 6.84261 8.29881 29.7302
1 5.11162 13.8325 19.0486
1 16.0024 0.911343 27.8771
1 5.41599 25.5669 9.38736
1 8.06547 4.38825 20.9539
1 11.6299 15.8983 28.5993
1 10.7265 22.8753 8.87842
1 17.0061 1.2255 24.7366
1 27.2784 11.8078 6.96074
1 20.2416 24.0097 15.7459
1 20.369 16.8593 23.9
1 12.2342 23.3822 2.87226
1 25.7077 27.5281 22.2832
1 19.9457 15.0735 18.892
1 28.4975 14.7589 21.8549
1 29.4394 18.3353 16.449
1 15.5757 6.62306 13.1422
1 22.1284 27.7284 24.6052
1 14.2871 16.563 19.926
1 24.1671 5.99092 13.6578
1 2.57649 22.8852 11.4325
1 25.8741 25.5444 20.1115
1 13.2423 9.39502 21.1353
1 28.0523 24.2959 10.8581
1 20.2275 16.1486 10.5146
1 22.405 15.5843 3.13037
1 12.0829 26.2856 3.52044
1 6.60968 6.63168 8.73494
1 20.054 28.7816 16.1291
1 11.0815 7.18659 19.5876
1 15.7531 19.3566 6.82534
1 28.5601 8.13505 2.62075
1 21.853 6.30309 2.49813
1 25.3022 26.2114 17.8254
1 5.47749 8.20001 18.1175
1 7.76726 26.6996 23.8115
1 18.1126 11.5942 6.64945
1 13.7441 23.4683 27.3246
1 26.3639 5.86286 1.71639
1 7.27276 29.2006 21.08
1 20.6177 1.7303 28.08
1 11.8936 4.43024 2.81458
1 2.01226 19.1241 13.5871
1 0.90754 14.9468 1.38227
1 12.9272 10.7039 11.6175
1 24.475 23.1083 28.6236
1 8.95924 28.8113 23.0512
1 1.42987 29.9308 17.8604
1 17.9284 7.46248 27.0295
1 1.82912 21.6411 4.96843
1 8.0069 11.3246 23.8913
1 4.86272 15.3012 16.3077
1 11.5836 29.7897 10.7932
1 30.2661 4.41255 25.3577
1 3.58735 30.1268 16.2805
1 20.513 25.9034 21.5077
1 12.8929 20.2239 26.6253
1 1.42851 10.8685 27.6071
1 28.0331 2.21626 8.3528
1 13.0967 24.2333 3.71923
1 2.41916 8.00915 10.6481
1 12.0087 12.9599 23.8049
1 27.7322 17.5044 18.1663
1 6.27628 4.63892 26.319
1 26.6408 3.46286 29.8262
1 18.1279 3.8916 8.38098
1 8.02959 19.3636 2.70779
1 20.0174 14.7131 25.1996
1 12.08 7.23009 22.1022
1 28.3237 1.43172 29.2861
1 9.20023 4.55454 3.44294
1 14.5224 22.3399 1.15983
1 17.8533 8.60904 18.2402
1 28.7951 10.8146 18.0599
1 21.1655 17.7253 20.09
1 16.9135 13.9735 25.175
1 8.07466 13.4161 5.48033
1 27.611 3.62707 6.59413
1 20.6479 21.1358 21.9952
1 6.52679 29.8197 16.1794
1 9.36718 13.8383 21.2835
1 23.8364 2.05739 27.1111
1 6.29055 21.3003 9.07102
1 11.8797 26.1699 13.1866
1 9.92857 11.2049 20.0213
1 16.2539 17.4474 19.708
1 17.8897 29.0623 8.8888
1 25.874 10.5714 15.2442
1 29.6139 1.84819 7.81825
1 23.6543 12.5341 3.00348
1 28.7458 15.4821 25.8586
1 5.5029 15.8917 10.5235
1 22.2547 21.6458 12.0943
1 4.81528 22.1957 11.3585
1 9.91562 18.7619 28.1083
1 7.32537 5.17744 23.112
1 15.8833 22.995 24.9743
1 10.7153 26.0344 8.76996
1 18.0599 28.3862 26.668
1 14.0188 20.8992 28.4046
1 6.60844 27.2362 26.2003
1 7.88822 10.9446 25.5256
1 10.8184 26.2071 29.7549
1 17.7115 0.980578 7.58844
1 19.5219 13.3609 9.60964
1 0.364471 18.3791 1.77742
1 8.28378 17.7098 19.2431
1 13.3274 5.28392 5.10239
1 26.6712 26.726 17.4271
1 25.533 3.04063 5.24597
1 24.0896 10.1149 17.5894
1 25.5331 6.72637 20.7506
1 17.9642 15.1398 22.8988
1 5.58131 14.0654 8.49827
1 4.16173 8.78009 4.61391
1 11.4521 7.78858 14.0597
1 30.1174 6.28304 19.0311
1 16.785 22.7638 2.18359
1 7.07521 1.69887 28.1995
1 26.2118 25.9768 27.6011
1 1.91392 15.9383 12.0814
1 1.80166 26.7685 24.173
1 14.5857 3.86565 11.5372
1 0.611878 29.3264 28.1595
1 22.8723 21.0482 15.2139
1 4.254 27.8521 12.7687
1 8.37124 6.76587 3.66745
1 26.761 25.3709 8.59406
1 19.6586 13.5238 29.098
1 17.7951 17.7432 16.0249
1 24.0433 8.54898 8.99606
1 20.8782 25.9203 1.34268
1 18.5674 10.3645 24.8331
1 19.5282 15.2105 20.1769
1 24.4659 14.6882 4.67136
1 4.95239 9.25883 5.89257
1 5.08463 16.1896 5.01595
1 17.1943 16.0157 17.7066
1 7.44819 3.62671 1.89676
1 20.1018 21.7344 17.2601
1 5.6819 19.1639 21.0869
1 3.22455 11.1443 1.93314
1 16.2066 5.39104 23.9604
1 5.24214 11.2035 12.686
1 19.3167 8.322 0.358712
1 9.53719 2.13657 2.21441
1 9.07786 23.1115 10.6952
1 6.71522 19.0878 10.5725
1 28.0619 26.1458 19.5922
1 13.3218 16.1747 20.465
1 11.1011 15.3881 4.33527
1 20.349 18.7228 11.4082
1 22.9605 4.32171 4.61248
1 16.3565 30.0609 11.7437
1 10.152 15.6908 28.5261
1 25.9178 22.4699 19.4131
1 29.9 21.4264 4.07042
1 27.6891 6.68043 4.99178
1 23.6903 4.38418 19.7209
1 28.4574 9.80206 13.1288
1 19.264 13.3012 11.8418
1 11.8929 28.7879 6.15125
1 22.5131 26.7742 11.66
1 17.402 12.1234 15.4675
1 22.5744 5.6621 17.7989
1 29.5754 26.613 10.2828
1 19.1065 9.46987 10.8953
1 19.1194 16.0099 24.8444
1 7.88204 28.3076 17.8346
1 22.9058 6.78843 2.24813
1 8.51385 6.24645 19.3451
1 21.977 15.2379 0.221152
1 7.64085 5.00272 11.6056
1 4.29396 9.99009 8.6311
1 9.23018 9.82624 14.1213
1 7.67873 4.11781 14.0466
1 28.2021 18.5316 15.8938
1 3.72255 7.76451 13.4721
1 8.93577 27.7142 20.6712
1 19.5719 14.3335 6.00469
1 24.8769 15.2586 3.71499
1 9.74478 5.62581 7.09533
1 13.7621 0.270502 19.8543
1 11.6157 21.7673 15.7086
1 3.28043 1.56298 15.5744
1 21.4077 10.4632 25.3524
1 18.0418 24.9153 9.98612
1 29.8611 7.24377 30.0545
1 4.18969 11.7217 24.6882
1 30.3467 20.1787 20.1942
1 27.4564 1.93789 20.6332
1 25.8546 29.9996 27.4181
1 27.6971 28.5536 26.8251
1 13.7306 24.5437 29.5812
1 22.2017 0.254696 17.0826
1 9.83707 10.2436 7.95487
1 21.9947 24.5061 17.8682
1 16.0983 24.2766 0.499349
1 23.3346 14.2883 12.9735
1 25.7423 8.34114 17.1537
1 24.3309 1.61135 8.0817
1 29.1017 22.4118 26.1223
1 5.56936 20.6874 23.4835
1 14.8163 15.3117 24.7443
1 2.94174 7.03901 23.8672
1 27.7152 23.0992 28.6236
1 30.2409 9.78845 3.62612
1 24.2223 19.3524 17.1296
1 22.5091 13.296 3.53819
1 25.816 30.0487 12.3759
1 17.1142 5.32233 20.4111
1 23.6328 1.43616 15.1127
1 20.6229 7.16355 23.7593
1 14.1486 12.7944 12.0373
1 16.9979 13.5511 28.4526
1 3.16191 19.6234 28.8363
1 16.0257 15.7309 26.9831
1 6.98699 12.7959 14.303
1 13.9827 14.8335 14.8224
1 21.1646 4.64134 24.5701
1 16.665 7.81455 8.7456
1 7.418 14.3248 28.0828
1 13.6473 22.4889 25.1006
1 29.8172 4.08509 8.12915
1 9.85705 23.0597 14.678
1 13.186 23.6309 18.5365
1 20.5509 12.713 0.64841
1 13.8489 5.84255 20.8059
1 22.553 4.56938 16.5648
1 5.14718 18.8236 6.24342
1 24.7789 20.36 7.29556
1 19.9391 12.479 25.2082
1 23.5042 28.822 27.6792
1 7.63499 30.3917 25.7512
1 21.296 12.1137 10.9492
1 11.7509 1.32447 13.2576
1 26.7967 8.28339 19.5737
1 14.6536 14.083 22.9097
1 21.1017 5.11234 12.7646
1 7.43054 25.5092 24.5093
1 0.217951 26.9651 26.2626
1 22.9287 9.79556 7.078
1 9.1748 12.9063 15.4475
1 4.81657 5.61301 19.9796
1 24.7597 29.8877 13.264
1 25.494 2.03932 17.3049
1 11.8004 5.78534 5.33396
1 18.2624 2.56591 17.2601
1 22.7825 1.64136 3.65772
1 15.1601 29.1735 26.7565
1 3.96842 20.9154 9.89299
1 24.1837 4.08494 14.4966
1 0.65402 0.377364 18.8953
1 4.52959 12.4201 4.39968
1 4.9964 15.7141 26.5178
1 19.3004 9.55024 22.1121
1 8.34136 29.154 14.0508
1 9.48925 8.87789 20.1665
1 4.05853 21.2491 26.663
1 22.4293 22.8471 21.8441
1 0.688092 26.1284 1.699
1 24.6399 17.8896 5.15425
1 4.31296 27.7809 9.98495
1 21.1292 17.4992 28.0688
1 14.4745 21.3123 25.0113
1 13.0901 18.7815 16.0703
1 29.4798 0.629374 6.95451
1 2.10227 8.7011 12.0414
1 9.10859 24.2334 15.4219
1 21.8305 26.5571 25.2404
1 24.4071 3.24188 17.0984
1 5.95201 23.5214 18.8248
1 1.24433 5.47481 6.68843
1 3.8359 3.62142 6.48279
1 12.1137 6.41978 26.143
1 8.12288 19.8208 24.2152
1 6.13763 5.76189 19.3524
1 12.6878 13.8386 1.98321
1 19.2435 4.52058 0.564837
1 20.5857 24.2077 12.6253
1 6.3356 12.5643 17.0079
1 7.28161 2.84519 14.2973
1 9.41761 9.04242 29.8588
1 24.2749 27.8819 24.5454
1 4.97688 10.7869 17.315
1 14.2504 17.703 6.87397
1 12.0666 19.5266 7.25979
1 18.6483 1.14963 14.6909
1 29.7013 29.9224 19.658
1 16.0896 23.4865 9.21038
1 13.0383 2.69022 18.8284
1 2.54307 1.74589 29.5568
1 2.00475 28.3283 22.3861
1 3.92362 3.36225 12.9786
1 29.3409 25.4278 19.8087
1 26.2415 14.602 10.7649
1 23.485 24.9559 17.7438
1 19.8754 16.7587 28.2902
1 11.8909 23.5505 13.8605
1 21.6224 2.55947 12.3236
1 0.432517 18.5971 8.4623
1 3.62027 19.2954 22.3627
1 28.0396 10.4853 1.63119
1 3.70645 3.89892 8.06386
1 18.3739 5.08451 19.7588
1 23.5315 3.68487 20.9292
1 11.2534 15.1594 23.6386
1 7.81725 3.24971 7.34771
1 18.1118 7.5712 23.4599
1 21.5447 20.9833 14.5774
1 19.4255 24.9153 24.1053
1 4.99671 30.2724 17.0216
1 25.9255 7.32874 6.57159
1 19.5482 2.61282 27.7981
1 13.962 9.76165 12.6511
1 30.3574 11.9224 19.5702
1 6.29415 6.56559 16.1484
1 3.99058 19.8574 11.0764
1 13.7254 26.2158 14.7427
1 22.5423 11.6481 11.2128
1 21.6984 23.7669 5.82054
1 6.9259 9.26904 14.5694
1 10.2874 29.1048 15.9466
1 9.82921 27.2158 27.3191
1 21.8436 2.07044 28.7189
1 6.0626 27.466 2.25734
1 1.9933 8.58298 8.2843
1 26.5149 12.7115 11.0052
1 8.36559 22.2858 8.06014
1 28.5381 14.2404 26.2573
1 21.908 20.1906 29.3118
1 11.802 15.1894 13.2596
1 5.19236 24.5938 27.1116
1 6.02174 17.0357 19.4134
1 19.788 3.53212 9.90751
1 11.9736 17.1913 8.46594
1 25.3688 4.88207 13.7128
1 27.5867 24.0688 20.7106
1 20.739 26.244 22.9484
1 1.57153 2.71494 7.57636
1 15.4406 7.11503 2.42782
1 19.6576 13.5477 1.39431
1 10.2708 25.8374 2.89927
1 26.9517 12.0251 17.2695
1 10.0382 12.5111 29.8414
1 14.2157 24.1409 3.06544
1 2.54698 10.0996 6.16174
1 5.72183 5.39286 16.6677
1 6.59487 11.2652 30.3543
1 3.33269 20.7536 30.0047
1 17.5069 28.3735 29.0369
1 8.43247 18.5063 26.2088
1 9.68821 30.1775 22.8897
1 22.1547 8.97984 0.202803
1 0.363336 5.21679 8.40512
1 29.0232 27.3916 17.5086
1 7.07891 15.7674 16.862
1 28.3714 20.6431 21.7713
1 10.6683 12.4806 15.6206
1 14.0662 1.33271 28.8648
1 19.1168 16.934 26.0672
1 4.78261 18.6425 27.1697
1 28.9468 8.72382 21.7227
1 9.69177 20.4702 12.6104
1 22.8624 16.1918 29.7939
1 15.08 5.07555 15.412
1 7.01376 21.1532 6.34477
1 9.87309 25.4108 23.9329
1 1.55507 19.894 3.3959
1 3.54658 19.6373 4.94016
1 23.1765 11.9952 9.81736
1 5.10799 4.11423 6.02741
1 7.32057 14.691 3.28885
1 13.8201 28.993 15.4449
1 9.32547 1.39133 14.5458
1 18.7783 29.7891 1.80879
1 0.462747 1.18271 9.09382
1 1.50151 8.71351 9.6638
1 7.13909 16.4496 8.98515
1 20.5499 7.46415 0.76214
1 29.9616 9.08835 6.01346
1 10.6314 29.115 28.7878
1 9.33263 24.13 17.3526
1 17.6622 23.2746 28.6527
1 25.9994 13.0412 17.4306
1 27.1389 17.8425 29.4133
1 25.3688 27.0337 15.1982
1 24.6917 28.9178 6.29053
1 3.71853 23.3288 13.3577
1 8.736 24.1762 9.68018
1 5.25308 11.9183 0.342054
1 14.3489 8.27024 7.48993
1 3.10701 27.3164 2.93151
1 20.4713 0.700611 7.38885
1 4.27983 5.16991 29.5425
1 2.4274 15.7508 0.39921
1 3.96188 14.0863 1.21461
1 16.0043 23.1683 19.9531
1 18.5547 27.0298 4.53122
1 21.5488 29.3971 1.98769
1 9.88338 3.96321 11.6568
1 3.24236 19.7535 25.5536
1 15.1918 1.2105 8.83359
1 2.9257 18.2733 4.81588
1 12.4287 19.2822 2.33288
1 3.14424 14.6476 7.15952
1 1.59838 22.5793 15.1509
1 8.70871 16.8226 27.7217
1 8.05277 17.0602 9.64067
1 3.32756 15.1184 11.4998
1 5.99432 11.7162 13.848
1 14.7533 30.1089 24.5274
1 5.89294 28.6661 4.21897
1 7.26737 0.276698 18.0353
1 1.13016 18.8053 7.46927
1 10.5362 28.112 8.66797
1 24.3047 13.6966 5.51062
1 26.34 7.54116 10.4225
1 2.52404 20.1685 24.4218