4096
Atoms. Timestep: 120
1 18.7047 11.6615 7.13395
1 24.6244 25.0047 22.554
1 5.72972 10.4115 6.43739
1 18.3627 6.61488 21.4782
1 1.99803 21.4958 4.97333
1 9.84323 21.5394 23.644
1 21.8107 0.467442 7.55168
1 24.0025 3.11161 5.86445
1 13.5154 4.55513 7.75568
1 22.7568 14.7218 28.9847
1 18.1389 15.5545 25.2702
1 24.3818 1.7095 16.9311
1 13.1202 4.08405 17.7083
1 19.33 0.277132 28.4033
1 25.509 23.3349 13.583
1 7.13311 25.6859 19.1031
1 27.2118 27.806 13.6549
1 10.6664 15.4439 25.7356
1 1.80912 9.7842 5.11148
1 28.2538 5.14117 17.8123
1 8.59256 25.2171 14.1285
1 9.74108 21.9075 14.4846
1 16.5799 14.2465 16.768
1 5.99293 18.7546 25.1148
1 11.9322 5.95925 11.29
1 27.4066 6.31919 13.8202
1 18.2506 2.31268 6.01287
1 4.73972 8.24731 10.2441
1 14.0306 18.7657 3.84045
1 5.7909 19.5634 27.1246
1 9.66545 25.0606 20.6084
1 5.70335 16.5396 3.19868
1 13.9864 16.7764 15.3026
1 14.6575 17.6085 17.9672
1 5.8933 25.4575 13.8142
1 9.3503 27.5806 18.269
1 26.3999 12.1378 10.1272
1 17.5581 25.8904 22.09
1 11.7487 16.1515 4.82759
1 28.5276 11.5492 18.7023
1 20.6302 3.40054 16.253
1 29.8863 19.2496 7.25206
1 3.28386 17.0937 16.8358
1 19.0272 15.5177 16.1493
1 16.0013 4.20737 26.5099
1 15.5707 4.28104 16.8701
1 15.3496 5.31281 21.5287
1 9.93733 5.15405 1.13432
1 7.11172 21.0951 10.1507
1 19.3387 0.970715 12.0882
1 20.1844 5.64508 3.3314
1 20.3152 2.62861 18.9667
1 9.27672 19.7843 18.4987
1 10.3223 11.4859 9.11811
1 5.5465 22.0163 28.7473
1 22.4731 7.79734 11.2454
1 4.97777 5.05191 17.2814
1 10.8812 23.5148 0.606082
1 5.25019 25.578 24.7144
1 29.9377 10.0355 23.1663
1 1.04131 4.39304 19.2435
1 2.35986 22.9739 11.6919
1 20.8471 17.611 7.12482
1 7.37549 10.7669 3.95332
1 0.755002 0.531986 9.15366
1 19.5069 23.3617 11.1296
1 19.7102 16.169 26.0036
1 22.3579 19.7216 10.906
1 0.512887 29.2828 18.3113
1 15.3528 4.93101 1.60124
1 12.1324 21.8756 27.5536
1 27.9206 0.124631 29.459
1 2.48646 5.86448 28.6725
1 12.2148 1.70201 11.75
1 26.9287 1.53625 10.9505
1 15.9003 1.83761 24.4933
1 4.3403 3.40243 5.77457
1 1.71292 29.7199 21.7266
1 2.32078 8.28031 1.70965
1 1.29468 26.5924 16.5501
1 21.8298 12.7733 0.226222
1 20.9211 16.4399 19.7343
1 21.7135 7.71893 14.0502
1 28.0576 22.4467 1.72497
1 21.504 8.73656 7.3793
1 2.29074 25.3624 8.96947
1 29.5944 3.38326 26.6585
1 29.4851 1.33129 1.49802
1 12.6707 3.54641 20.0491
1 27.3911 12.5123 19.0696
1 21.3281 28.2374 7.40283
1 5.97003 5.13175 4.1815
1 22.3204 24.5671 22.3329
1 27.1554 12.1886 12.709
1 26.9932 21.2271 4.75924
1 15.1469 21.2716 13.0464
1 24.9455 20.1842 7.52796
1 8.26899 3.34314 5.5293
1 15.9417 7.77593 14.2869
1 9.16311 21.8048 1.63966
1 7.40912 9.8695 4.94493
1 1.55267 20.1103 19.2746
1 17.1381 22.7421 18.0236
1 11.7119 7.04445 0.740471
1 18.4293 22.5191 17.8854
1 28.9245 20.7327 1.53623
1 6.35103 9.32813 12.6549
1 10.8243 3.14727 26.9604
1 11.1193 1.50114 13.7448
1 10.4998 26.4084 26.9393
1 9.06727 13.812 8.3359
1 11.9584 28.9307 23.8937
1 22.9944 3.68813 9.65512
1 15.3532 28.2303 3.92903
1 1.58258 11.2276 23.7163
1 22.6254 16.5976 14.3287
1 13.2193 24.9081 10.2218
1 30.3056 22.276 4.8528
1 9.41338 0.703841 9.55095
1 17.5224 12.2226 10.2592
1 21.5267 3.81116 21.1608
1 25.4815 20.4192 4.64819
1 22.3086 2.65081 8.60042
1 20.9068 0.18497 18.6682
1 5.82077 13.8596 9.29593
1 18.9726 15.2427 18.9404
1 30.0095 20.3053 10.5619
1 18.4891 21.8624 12.8299
1 10.8977 21.9882 18.0362
1 5.00104 28.9656 13.5363
1 28.0784 19.0743 19.6404
1 10.5887 15.7733 13.3558
1 8.93613 24.6927 11.6088
1 4.79462 6.78135 2.0841
1 4.13865 21.2465 22.5077
1 23.6371 3.69547 17.4808
1 10.2714 12.909 13.4714
1 22.1458 11.8566 20.7871
1 13.8968 21.8136 20.5115
1 0.606468 24.1174 8.3788
1 17.6975 28.038 3.8558
1 8.75428 26.2128 25.1234
1 17.7508 29.2294 2.98673
1 17.2339 27.3652 10.8143
1 21.6244 22.254 11.0486
1 26.306 23.7654 16.1979
1 0.919573 12.3849 12.7628
1 19.9864 10.6853 28.3856
1 21.7868 3.99383 3.84963
1 17.5428 25.495 17.1648
1 28.553 26.2898 25.9513
1 0.211196 24.0222 1.79543
1 24.3747 12.3395 5.69824
1 18.4168 1.5076 4.86231
1 3.1699 15.8307 11.1671
1 24.3785 4.29742 6.86039
1 10.2351 19.5591 17.3078
1 10.8437 7.08356 28.905
1 8.28492 25.5436 1.76228
1 1.70186 10.4206 26.5004
1 22.5843 25.2282 5.08784
1 2.97116 19.2609 21.2931
1 5.2114 19.72 19.752
1 13.1053 6.12703 28.9857
1 19.8675 28.6348 12.0074
1 0.741457 11.6907 8.19301
1 22.6113 3.83663 1.30701
1 13.1752 16.484 22.53
1 19.3282 13.3427 17.1611
1 11.5075 14.8686 23.9708
1 3.57568 23.7831 28.5239
1 8.01748 5.90787 21.4057
1 10.0369 19.0767 19.6809
1 26.5099 7.93155 19.6699
1 23.6652 11.0374 2.71486
1 19.9358 11.3447 19.5912
1 30.1727 15.5904 17.4968
1 10.7087 26.3664 5.06414
1 23.2624 17.2382 16.878
1 1.35854 16.9639 7.45132
1 7.61135 5.46977 12.4762
1 20.3979 9.66499 24.1823
1 7.3157 11.4777 20.3974
1 9.8652 7.66561 4.24598
1 0.892753 25.5052 8.97989
1 28.7815 7.11155 7.83996
1 22.2357 3.18895 30.3204
1 4.67643 19.3662 16.9382
1 14.5629 11.3455 14.7198
1 24.8282 9.34758 3.50419
1 14.8884 16.9276 7.17424
1 0.862726 13.1608 28.9974
1 2.3561 9.95693 17.6522
1 10.6761 15.0109 14.6404
1 21.5621 26.157 24.1579
1 1.06207 29.0478 0.131591
1 3.47916 22.1274 15.0197
1 2.60895 8.59283 11.7044
1 6.19581 2.55985 7.94194
1 20.7384 22.2367 1.66611
1 30.3565 23.5087 22.7287
1 3.43469 27.3748 0.942307
1 20.8877 18.5876 2.57201
1 17.8394 4.33349 7.8895
1 1.6243 20.4826 7.59959
1 12.5689 8.6404 18.0623
1 27.9511 27.1098 16.2403
1 27.5779 19.2591 28.6825
1 27.1211 19.6894 22.758
1 4.02101 4.81514 22.2416
1 19.552 6.78511 2.68576
1 13.4144 5.04744 0.691063
1 20.2263 24.6664 7.91073
1 20.7909 6.17263 11.2823
1 0.857087 21.8755 7.89185
1 7.18504 6.12343 14.0103
1 27.6323 18.3169 26.0411
1 2.61129 2.08715 17.4841
1 1.76299 6.70065 8.24606
1 5.2694 11.5869 2.56287
1 16.1719 7.34562 0.306755
1 3.08242 11.813 14.4556
1 21.0465 8.41483 23.2109
1 7.34247 22.3148 5.79923
1 19.6812 17.0268 1.48978
1 25.0618 13.8023 22.4761
1 17.5348 8.83117 6.06503
1 20.5907 0.624865 21.4404
1 2.21159 13.72 5.63284
1 27.1099 29.5906 1.10566
1 2.6745 1.42846 21.4265
1 14.5507 11.6462 8.29655
1 5.5153 15.6532 14.9854
1 2.45954 9.71336 7.79553
1 6.66651 1.43313 21.1257
1 27.3484 20.3855 17.3093
1 27.2141 3.26236 8.95701
1 1.03188 5.59287 10.228
1 15.909 7.0153 26.6957
1 28.6338 28.456 27.3135
1 19.8819 26.0636 22.7952
1 17.6608 11.1593 22.6205
1 29.9557 8.40682 4.49569
1 16.4386 29.6538 26.097
1 14.886 19.7883 4.15145
1 12.6612 18.75 4.24763
1 4.97864 15.3388 19.8055
1 13.5645 20.1467 6.47086
1 23.5411 25.4333 29.1546
1 21.9857 22.2331 14.252
1 29.669 21.0287 4.83351
1 9.08252 10.0307 11.0408
1 20.5147 15.3435 30.1921
1 6.27011 3.65143 27.4669
1 10.631 5.56668 11.2418
1 28.2323 21.66 22.8573
1 17.8942 2.45695 2.61268
1 8.51585 11.9517 2.43441
1 29.3751 29.1231 6.9613
1 23.9765 4.90119 14.9932
1 7.86929 7.46541 27.619
1 11.0012 3.28407 29.5478
1 14.163 15.5417 30.2537
1 4.54349 14.4256 27.9683
1 6.28469 10.5561 10.4635
1 14.2568 22.2324 16.4497
1 13.3611 8.00075 19.3254
1 1.45234 1.00387 29.5174
1 28.0883 30.3596 9.28948
1 0.334277 26.6858 8.57434
1 7.0339 7.7459 7.63084
1 16.4602 4.46001 11.0069
1 19.2227 12.372 21.637
1 0.134655 12.8688 2.26034
1 28.4544 20.6043 26.0493
1 10.2418 7.77563 9.96019
1 25.1071 8.94029 0.810854
1 9.0933 26.5097 13.3073
1 8.90572 20.829 20.8302
1 11.2244 29.648 20.7673
1 17.828 13.7209 9.8027
1 29.2222 1.45436 19.276
1 9.6367 4.05247 3.34299
1 25.2928 26.4138 7.91623
1 29.4244 9.41952 9.34431
1 8.96026 28.0954 1.04637
1 22.63 23.1268 21.8692
1 25.6985 19.0133 4.74561
1 13.1672 25.2443 7.59273
1 12.4759 7.26144 11.1744
1 17.5122 14.681 12.4289
1 17.6807 18.0349 14.239
1 0.851085 19.9287 1.59272
1 17.1753 15.1357 14.8085
1 27.6758 16.2921 22.8617
1 30.1618 11.9146 13.9462
1 9.7535 16.3582 23.8853
1 8.49447 27.3784 30.2733
1 11.7918 22.7734 17.1666
1 22.7166 21.4543 8.09497
1 7.02986 14.4015 18.3956
1 8.06331 7.42752 21.2652
1 23.9856 17.9204 1.30154
1 5.05789 13.6589 19.6619
1 9.9318 11.6698 14.0616
1 28.3113 27.5505 8.96027
1 6.31299 0.944194 22.8217
1 1.85918 25.5122 29.1106
1 8.23015 21.1871 25.514
1 17.0506 30.3473 16.199
1 21.9762 17.5604 17.2743
1 25.0662 4.47874 0.67927
1 12.7803 29.8827 23.2687
1 27.4021 18.5166 13.6829
1 22.5397 9.11994 11.1465
1 9.94967 2.24228 27.5103
1 14.0938 27.3833 17.6721
1 13.9713 13.5638 19.1951
1 17.2384 23.1385 19.4796
1 22.2559 13.457 23.2492
1 23.8554 16.2066 13.7518
1 23.085 5.68932 11.235
1 2.32397 13.908 27.5746
1 3.04363 24.5896 16.7546
1 11.2116 18.1266 17.353
1 18.639 24.4974 10.688
1 0.429259 17.3582 15.982
1 10.685 15.2389 28.2096
1 6.78337 8.68459 29.4855
1 12.3374 9.05371 26.7969
1 15.2134 20.3049 11.9827
1 14.7902 1.00773 18.8237
1 16.5815 3.4208 19.0513
1 27.1374 18.9314 1.91506
1 10.2351 5.31091 4.03971
1 6.65575 27.8754 3.93553
1 12.9286 9.61263 7.70237
1 11.4002 8.23187 26.268
1 17.8357 16.1639 3.0597
1 1.19993 26.2612 1.19603
1 30.1788 1.10441 18.0292
1 16.3892 22.1119 30.3236
1 23.2006 26.2126 10.5058
1 29.1776 2.62261 15.0359
1 2.40806 27.085 19.747
1 1.96678 3.22937 17.485
1 3.19408 15.0335 27.7226
1 13.2095 26.4556 23.3353
1 1.05649 1.44342 5.62237
1 1.03924 15.0204 8.63148
1 16.9136 5.77967 4.97532
1 17.5736 17.5215 26.5036
1 3.29907 15.2969 22.9383
1 10.6323 6.76592 24.2433
1 8.26818 0.944974 7.34199
1 13.8652 7.33753 10.9148
1 29.6594 2.40967 12.6006
1 22.0311 15.5503 25.4418
1 12.3284 27.6357 29.5945
1 19.1549 3.81414 4.75997
1 6.12306 8.57493 20.8583
1 26.6874 24.7456 1.8355
1 20.7559 22.9014 14.2904
1 19.3489 23.2928 29.9381
1 14.7427 16.1228 18.0418
1 11.9814 26.3484 26.9605
1 6.76761 17.7146 30.387
1 21.5946 27.2508 3.24746
1 10.6158 3.40039 16.9682
1 12.6986 27.8054 4.32359
1 8.17335 6.25504 19.2613
1 20.9365 25.7786 1.83494
1 4.81262 2.3224 12.2329
1 26.5638 6.29804 23.0356
1 12.9498 14.5064 13.0717
1 12.9219 26.3967 3.3388
1 22.5759 15.007 17.5368
1 24.5998 18.973 23.2143
1 18.6217 7.88696 5.74837
1 14.2785 22.0661 28.6918
1 20.3092 1.52068 13.0506
1 10.2902 8.00017 23.9218
1 4.64204 5.58512 29.116
1 26.6472 28.2639 28.9156
1 21.0741 27.3665 9.85837
1 7.25953 5.76403 29.0478
1 24.32 5.32679 1.56997
1 7.34251 27.3202 23.36
1 2.77532 5.21856 16.7638
1 15.8794 28.2083 19.6561
1 12.8199 21.1947 21.2178
1 6.32107 11.7354 16.0756
1 20.4253 4.94582 17.9849
1 20.798 26.7023 0.780389
1 7.42498 11.8678 12.1337
1 7.71218 27.1226 9.7865
1 19.5377 22.3793 0.784141
1 26.4477 1.92173 5.24568
1 21.9929 26.081 2.67031
1 17.7869 18.9693 21.1161
1 7.00092 5.26098 25.4033
1 16.6164 6.62837 29.317
1 18.1287 26.4398 27.4984
1 0.394469 10.0213 10.4054
1 27.6354 15.0826 4.03351
1 1.57461 27.8187 23.0853
1 28.7085 1.76616 16.3122
1 2.87476 27.636 12.6073
1 23.2523 9.9806 12.6702
1 11.0865 12.1477 17.7777
1 11.195 19.5542 8.9704
1 9.19379 12.3359 29.249
1 27.3441 12.3527 21.2343
1 18.1349 5.3732 28.022
1 21.5573 13.6515 8.43152
1 25.2327 26.192 20.5395
1 8.9559 7.04886 1.26452
1 7.73141 3.06235 27.1892
1 1.87685 4.61319 21.3845
1 30.2068 7.92552 27.0126
1 9.96197 24.4248 10.1373
1 8.26326 3.69165 2.96058
1 13.2193 27.2679 6.44023
1 30.3133 6.38201 23.3072
1 18.168 20.568 9.57843
1 27.0346 27.7974 8.06001
1 10.6584 13.7387 24.5003
1 10.3241 24.5399 26.0813
1 22.5925 27.2745 13.7416
1 10.2244 26.6909 11.1374
1 10.0137 24.17 28.7541
1 19.9125 16.61 0.172514
1 22.7339 24.9784 2.36111
1 0.283828 11.2998 0.528107
1 14.2268 24.247 3.02753
1 9.46282 3.68566 21.6904
1 12.8551 15.1132 16.7001
1 11.7058 12.6136 19.531
1 7.21227 9.54237 15.5429
1 5.65914 2.17988 17.5359
1 5.47205 18.1206 14.5567
1 24.4427 9.45211 16.4195
1 2.00077 15.0222 0.900886
1 7.46371 22.4972 8.36384
1 12.8598 16.6254 6.22354
1 15.3148 11.7084 11.9591
1 24.9592 11.9895 15.062
1 2.3466 4.58795 6.60237
1 9.91685 14.7758 5.91298
1 16.0498 25.1367 28.1959
1 14.1972 25.3576 21.5687
1 28.974 7.42692 26.7432
1 10.4335 5.28645 23.7578
1 9.41996 29.1225 4.50882
1 9.56099 12.4741 11.3324
1 11.7177 12.8639 16.8275
1 12.7588 22.0803 2.63382
1 13.2924 7.90786 4.51248
1 24.5738 30.4239 24.1992
1 5.44525 3.59666 18.0927
1 11.2163 30.3172 5.86598
1 3.29217 4.4311 19.5279
1 28.8324 12.8709 27.4413
1 20.8543 5.33367 27.9527
1 12.0945 11.733 0.429942
1 27.492 15.9821 10.5287
1 23.3211 26.8292 29.7814
1 26.9908 28.9365 3.63325
1 10.093 22.6835 9.56622
1 6.05543 0.539759 5.03591
1 0.122751 22.3485 1.61419
1 20.3869 27.2506 8.30469
1 11.7803 8.50034 1.10698
1 21.3544 13.3116 18.6654
1 16.1588 15.476 10.5536
1 16.4116 11.5926 9.60865
1 6.53298 19.009 14.0452
1 26.5012 15.1784 13.584
1 27.599 12.3801 9.49436
1 16.8852 0.870065 12.318
1 12.4611 4.03776 24.4253
1 26.6342 1.36119 16.5053
1 25.3064 13.2671 29.1491
1 18.6175 26.5202 20.5521
1 4.62747 29.2835 16.9518
1 14.8169 18.6587 0.692633
1 15.9224 18.1087 18.0346
1 26.8571 15.0476 19.4256
1 15.4802 6.73906 16.7818
1 19.4165 14.1715 16.059
1 1.20203 17.5733 13.8202
1 28.1022 27.9952 5.37081
1 5.7136 21.3753 13.4822
1 10.1657 14.1108 20.9694
1 9.11012 27.7727 2.31646
1 10.9001 29.6786 4.81477
1 9.80444 1.69126 3.54398
1 20.4383 25.83 11.397
1 21.469 11.3865 14.6666
1 6.28663 5.57762 0.970112
1 22.4009 11.2561 24.7605
1 17.0767 11.7799 13.7107
1 21.6219 28.317 17.7498
1 18.0769 1.35498 23.7117
1 20.3647 16.6476 10.1774
1 15.9968 22.4136 9.78396
1 22.6669 12.2289 28.0619
1 2.64598 3.1863 11.9225
1 29.9545 15.8628 1.17624
1 23.7269 7.2341 21.9996
1 28.7997 14.9282 28.2624
1 18.7255 7.25719 9.86913
1 10.7154 21.7932 1.47386
1 25.1101 30.1364 22.3917
1 19.2861 6.97433 23.8269
1 21.4723 14.316 4.92814
1 13.7224 22.9093 11.4986
1 12.7882 0.639713 27.9542
1 2.55046 27.4238 16.4353
1 6.85626 2.0028 23.5274
1 7.35584 27.4424 6.49233
1 13.1483 12.3423 19.408
1 1.74073 19.5315 22.0349
1 5.79148 28.0616 3.0483
1 16.5222 22.1024 23.0004
1 6.9861 2.83923 21.726
1 28.2393 2.09238 18.683
1 24.1722 12.8965 29.8784
1 26.7252 1.8391 3.82583
1 14.5832 6.32476 22.4475
1 21.1566 11.5098 30.1733
1 20.4258 24.0859 24.7558
1 18.1877 2.97225 16.7776
1 7.86926 26.9215 14.0945
1 3.14767 6.76568 24.3245
1 17.2684 22.065 20.3682
1 8.66685 11.5662 15.0233
1 23.5659 17.5937 25.9551
1 20.6896 29.6163 17.5334
1 0.847928 12.9657 3.63873
1 5.5058 27.2169 24.7911
1 9.6635 13.6531 15.9985
1 29.748 9.20902 5.68515
1 24.7164 7.65784 3.21578
1 14.364 0.938822 21.0072
1 16.8341 30.3777 3.35029
1 16.664 23.2044 14.4652
1 23.3071 22.6191 10.9794
1 15.0083 1.30867 22.3254
1 20.1034 9.37836 10.8396
1 5.27492 17.1739 27.8104
1 15.302 16.9384 25.8401
1 24.2564 22.4767 4.69423
1 25.6794 25.7954 24.8759
1 0.344811 13.6307 30.3311
1 21.1321 0.108405 11.1482
1 4.76724 17.9468 12.7325
1 24.5177 12.0111 0.557564
1 22.5114 16.9145 24.9057
1 23.5052 6.39084 0.997343
1 24.017 19.3686 16.9161
1 5.89278 14.2385 6.93382
1 28.6584 23.8245 29.3217
1 2.67225 22.9604 8.98082
1 10.4209 11.2183 5.73337
1 1.73505 6.39655 1.49209
1 4.33194 11.8005 18.1109
1 8.28394 0.813048 1.88005
1 24.6286 1.60124 28.1846
1 20.593 8.35425 2.42759
1 3.07365 22.8845 1.61045
1 12.5388 2.40885 14.3282
1 1.79368 15.1918 25.4201
1 0.549165 12.3711 17.9373
1 12.9136 12.563 28.6946
1 11.444 26.2777 11.7056
1 14.9666 24.3894 14.4368
1 10.1654 26.7035 9.36031
1 28.8116 27.543 19.0778
1 24.6366 1.25073 19.44
1 7.65293 16.8579 24.726
1 11.3212 16.6425 18.9334
1 3.33594 3.62505 4.66893
1 29.4318 21.4269 17.2212
1 22.6326 6.55489 27.6323
1 29.7175 28.6209 19.6088
1 9.14115 21.5595 19.6602
1 9.47259 24.5458 7.55557
1 28.6936 20.0137 10.1597
1 20.2457 10.9407 1.34146
1 27.6063 20.2345 1.92217
1 0.479719 3.54789 17.3012
1 9.3463 2.46487 1.29919
1 9.42999 16.9224 4.95129
1 16.8758 28.4162 23.6488
1 6.39693 15.5656 23.5125
1 25.5117 4.21176 18.273
1 6.72104 1.30762 17.832
1 10.3433 20.2987 6.36355
1 17.7367 24.4524 19.911
1 2.1389 2.94727 27.0391
1 22.4657 27.4205 10.1207
1 21.4849 22.7584 19.6887
1 3.92302 16.7092 25.3548
1 4.61155 11.79 25.4977
1 23.9395 29.6631 2.52135
1 28.507 14.3764 24.9995
1 14.7927 21.0456 19.9932
1 7.08926 8.95822 8.42389
1 21.6899 10.6821 25.8062
1 28.2548 20.6427 4.60898
1 22.5769 20.9258 22.8359
1 14.184 28.7075 22.5112
1 20.624 25.0939 3.89081
1 10.4766 17.4701 8.27206
1 14.4898 24.5991 19.3083
1 13.1783 4.2777 23.4328
1 11.1911 20.6183 17.4033
1 27.964 17.5658 23.0781
1 15.3997 21.4646 26.1116
1 29.7503 20.5358 19.7365
1 27.1491 29.2225 13.4517
1 9.83838 5.1286 21.2392
1 13.5881 7.60119 13.5348
1 17.0467 6.28791 12.6528
1 20.257 2.70379 10.4765
1 10.9962 20.7573 8.77206
1 21.8416 4.7356 13.2831
1 2.6546 21.6183 1.24966
1 11.1002 7.36905 3.83573
1 24.5291 28.9252 10.6465
1 8.40708 21.7135 6.48805
1 17.0303 20.4549 17.1509
1 28.1115 9.38635 7.70488
1 17.4766 9.62871 10.9663
1 11.0775 6.08363 3.19253
1 5.47049 28.9388 10.0697
1 28.7976 3.2075 24.1897
1 9.19484 11.0196 8.04581
1 10.0508 4.51966 8.65764
1 24.8039 9.28912 22.7895
1 18.0669 18.7099 9.35825
1 27.1172 7.62433 11.3349
1 20.949 12.6506 7.56435
1 26.1654 19.5404 29.0181
1 23.1665 15.7573 20.3549
1 1.19296 5.37253 26.9786
1 12.1651 28.6994 16.3457
1 8.75827 26.7741 8.92987
1 25.8359 28.5394 8.225
1 14.564 20.878 3.35462
1 14.7411 7.3833 2.7348
1 11.4063 22.2964 9.82157
1 22.7431 24.7915 10.9475
1 14.7164 7.23892 12.5083
1 17.8738 9.43635 22.8719
1 14.4532 4.18778 21.2067
1 20.3656 0.483295 5.52915
1 17.2011 7.73535 3.66535
1 6.84751 12.0441 4.42788
1 2.99757 27.7917 28.8055
1 16.3362 28.2852 9.02818
1 22.648 1.60415 15.5878
1 8.50155 10.8571 3.18292
1 8.17067 24.7176 5.6234
1 6.16945 21.0639 0.823282
1 11.3302 1.131 22.4868
1 16.7422 20.9989 9.59335
1 30.4172 2.36508 7.76866
1 11.7571 9.46762 15.942
1 20.5335 29.1739 3.71391
1 12.9387 21.8434 4.75013
1 6.61206 9.56351 23.1983
1 2.60511 19.15 16.0364
1 30.0821 16.8654 7.56462
1 10.5785 9.06854 0.232134
1 25.2363 14.5455 28.5021
1 1.41233 8.99009 19.5804
1 0.343292 27.1165 29.1156
1 9.51827 11.1191 22.0226
1 29.7526 21.7291 7.73756
1 4.01988 21.3308 10.1237
1 19.3656 10.8753 18.4657
1 1.61944 6.76769 15.8136
1 19.5577 3.92832 18.7978
1 22.9072 17.0414 4.50252
1 9.3263 21.3095 4.18584
1 21.8333 3.40386 24.1497
1 11.852 8.68849 2.59983
1 23.4596 8.13808 27.7413
1 16.7575 2.2175 12.1262
1 6.25883 19.7003 11.7477
1 0.474772 14.7524 0.529732
1 18.3887 19.7671 13.639
1 13.3708 29.4752 16.0036
1 6.88922 22.2146 0.594688
1 8.09991 2.87452 1.81619
1 19.4233 21.1873 21.2955
1 11.9964 2.59665 26.7459
1 9.10887 21.0799 26.9446
1 5.11827 21.8818 11.0736
1 24.6647 4.7207 28.0873
1 2.85577 24.1384 4.54273
1 16.9391 19.5927 23.4286
1 12.9128 3.41215 25.9406
1 1.70762 4.80876 15.876
1 6.92121 18.7871 3.22998
1 9.99774 18.2747 9.26983
1 21.5069 29.9414 15.8329
1 7.10314 7.58792 30.299
1 14.4882 29.8298 17.1292
1 23.7976 26.9062 17.7276
1 22.4491 23.7405 1.84974
1 26.4022 4.82962 1.02797
1 7.23422 5.23378 6.57307
1 19.2999 3.68983 29.4323
1 8.1181 2.54694 15.6367
1 24.554 8.16295 26.5247
1 6.70224 6.39611 3.86974
1 20.9903 3.3009 2.7821
1 30.4049 5.57359 11.1968
1 6.98149 9.33942 2.08297
1 9.79345 11.3954 10.5615
1 18.3674 24.0952 0.422852
1 25.294 9.10722 17.5072
1 13.5389 4.89712 4.69821
1 24.567 8.32348 13.8635
1 19.2278 22.2276 7.73392
1 11.8327 17.2583 28.3817
1 0.499821 6.6841 19.2216
1 17.7986 17.4223 13.0647
1 0.313908 6.87452 2.30196
1 16.0219 17.9586 28.9106
1 3.71729 17.7376 10.3336
1 18.727 8.29855 8.67819
1 8.15101 8.91183 17.8006
1 25.8997 6.27165 7.64764
1 21.1977 5.62707 15.8667
1 6.87664 14.2669 27.1033
1 12.9322 4.8579 11.1935
1 1.81885 2.36849 13.2006
1 5.22087 8.99796 29.7959
1 22.9543 13.1891 24.9294
1 1.23582 13.7063 12.0799
1 10.0224 18.9565 22.2735
1 29.5576 7.21514 17.3342
1 27.0964 3.44234 14.5376
1 16.4096 25.0127 7.61873
1 30.4389 8.17396 1.79991
1 14.2823 19.9134 18.0757
1 26.7348 4.96726 5.0389
1 1.20585 7.60388 7.17675
1 6.35455 10.2477 16.2665
1 17.7706 5.4415 13.9447
1 20.6105 17.5478 23.3077
1 22.5861 1.62854 2.3799
1 23.7277 20.0433 10.7575
1 27.8116 17.8711 7.25708
1 20.6155 27.2798 23.2157
1 25.9553 3.53066 19.4602
1 3.25404 8.59704 17.545
1 9.45038 2.93088 17.3134
1 17.1614 7.77581 8.29363
1 2.31329 12.6103 15.2771
1 10.1653 17.568 3.94577
1 8.88146 13.7611 20.0464
1 19.8976 21.8154 13.7482
1 13.2845 10.9709 15.6195
1 16.7469 22.8882 2.4687
1 27.393 3.4124 13.0996
1 5.27742 2.74091 25.3602
1 22.6771 8.89217 18.4108
1 14.1129 9.60454 16.2903
1 23.2083 6.26353 17.3037
1 3.24337 14.6574 6.09109
1 15.9079 11.2384 14.986
1 22.3543 8.63829 23.8005
1 15.7215 11.5112 2.52629
1 15.9631 27.7945 13.6577
1 26.3754 14.7426 26.5066
1 7.02203 27.2642 12.8385
1 10.0949 17.8545 1.19056
1 22.3903 30.0535 6.30416
1 2.00006 3.1449 7.27645
1 22.3833 11.3223 18.2475
1 17.4391 26.7296 29.678
1 3.6021 20.5627 1.64627
1 9.17004 30.1762 2.31238
1 1.19717 26.4742 20.0622
1 2.70876 3.07581 1.88272
1 0.651221 7.8881 18.8524
1 0.147427 9.96153 11.834
1 5.23838 16.5722 6.98543
1 24.8436 23.4946 22.5539
1 2.47829 27.3732 3.14818
1 21.1127 6.28806 18.8821
1 7.87203 11.0122 8.55843
1 29.8815 5.45627 20.9471
1 1.46585 28.548 2.7889
1 12.0691 30.2529 8.01196
1 15.9967 17.2322 7.94303
1 25.9469 6.51924 13.6282
1 6.0892 26.1478 12.6135
1 20.0941 26.3531 29.8052
1 20.6054 7.2019 26.4842
1 20.4572 24.929 20.1448
1 9.79967 28.9747 15.6531
1 21.6783 6.03732 21.5672
1 1.7418 19.8575 25.4198
1 12.568 17.751 10.8232
1 18.1276 18.1356 2.74309
1 9.19319 14.0928 0.998652
1 8.53311 14.9328 5.93726
1 18.0223 11.9516 29.6891
1 26.1285 22.4495 16.6492
1 6.39257 24.9337 8.89393
1 4.13933 10.8076 0.940815
1 24.8461 3.49724 30.0958
1 19.0287 3.75318 25.6801
1 3.38533 8.02457 28.6733
1 5.56296 7.0079 22.1616
1 28.4338 10.8543 3.02203
1 9.52666 19.1694 13.2625
1 2.53903 11.9329 24.2035
1 22.6851 29.6433 29.0879
1 28.4834 3.78347 28.8845
1 30.4163 0.795488 28.5058
1 18.8998 3.48508 5.91707
1 29.7656 24.3799 16.6211
1 5.47912 19.1907 7.2303
1 24.5367 9.5592 5.1471
1 22.9394 22.8264 4.92178
1 13.1397 12.2355 13.129
1 2.42685 11.8123 2.73585
1 20.1824 13.739 25.7538
1 9.41117 26.2982 28.0543
1 8.65882 28.079 21.374
1 14.7706 10.9086 25.1903
1 22.9018 24.841 27.2109
1 13.516 18.8348 27.4507
1 4.98229 27.4187 26.486
1 9.58515 30.146 19.2545
1 3.49531 26.7806 18.9539
1 6.83978 11.6955 19.0003
1 12.9443 7.57239 20.7726
1 10.3622 10.6527 0.709087
1 21.389 1.16068 15.9459
1 3.0521 25.679 7.7524
1 3.532 29.6649 4.03385
1 5.87906 12.4086 8.87276
1 10.8156 22.5815 5.80001
1 13.5038 25.7518 12.3041
1 17.2343 15.637 20.4758
1 26.0091 19.4315 10.7703
1 1.19565 8.28672 11.3225
1 10.0116 14.2968 25.7024
1 3.10042 9.29644 28.2402
1 5.99884 29.5202 16.2443
1 20.0348 17.6686 15.0402
1 11.4276 18.0669 11.6837
1 26.1611 19.0273 13.5812
1 17.8956 9.74976 12.51
1 27.9947 10.8597 21.4731
1 9.76585 10.0139 26.3818
1 25.5205 21.6593 1.96201
1 8.93793 23.7767 23.9065
1 24.1372 16.4267 23.0792
1 26.268 25.4799 4.84696
1 6.51047 22.1233 27.8198
1 24.0677 7.97824 29.3049
1 5.853 22.4398 16.4078
1 17.7527 6.55652 10.478
1 5.50382 13.8866 24.6661
1 26.1039 29.3819 2.27078
1 26.6761 22.6015 4.91938
1 1.33129 19.2133 16.9237
1 30.0078 17.898 13.5193
1 15.7504 17.4458 2.80593
1 18.4378 0.683725 16.1878
1 14.7106 25.5192 13.2513
1 3.56992 13.3629 10.8596
1 26.0946 27.9306 22.3323
1 18.6794 17.9341 15.441
1 2.75664 24.3321 1.24546
1 11.4091 15.5197 11.3754
1 28.4721 27.1474 13.7489
1 2.61719 9.03622 13.4085
1 12.4048 22.1977 13.3693
1 16.7073 22.2044 21.5568
1 2.63431 16.5252 25.5408
1 22.4232 6.59958 18.5942
1 21.1542 12.4447 27.6358
1 13.4681 8.93962 14.303
1 21.6749 17.5486 4.42305
1 23.652 24.5302 16.4166
1 26.6205 11.962 6.3674
1 7.01005 29.8092 4.86081
1 22.9331 26.9643 22.4096
1 22.3599 9.76945 28.814
1 25.346 12.0386 27.9858
1 26.1943 14.1763 7.08371
1 29.3223 17.4841 10.2953
1 10.2838 18.2158 30.0567
1 23.685 6.3282 14.6774
1 6.78589 6.28317 27.8089
1 6.88263 13.2823 1.36144
1 14.9825 23.81 22.0986
1 1.05784 7.39048 14.7336
1 26.4333 15.9811 22.5617
1 1.88575 3.23544 0.840693
1 23.3497 4.11127 13.8697
1 8.39786 11.2241 1.1345
1 9.27989 15.1654 12.4056
1 4.03271 18.7834 22.7585
1 17.8477 17.7507 21.7549
1 22.9643 1.03866 22.4231
1 25.0156 9.66564 26.9954
1 26.1259 9.64331 26.1252
1 11.2833 10.7736 18.3197
1 18.4583 27.9038 0.998225
1 23.2679 22.7558 1.8747
1 9.99803 26.2892 24.2878
1 17.2598 27.6359 17.9704
1 26.194 23.6047 25.8641
1 7.79285 20.3452 6.71994
1 0.329976 28.4732 6.47846
1 2.27519 18.9861 28.8973
1 24.5254 0.956695 10.1116
1 27.8179 23.3897 13.4703
1 3.46604 23.271 17.0188
1 13.7656 13.7952 15.8779
1 21.7178 17.6742 27.5776
1 16.2695 23.4929 4.97753
1 11.7898 24.8079 19.1112
1 24.1557 21.4437 22.7321
1 19.915 25.2499 29.0138
1 23.1708 26.6315 23.9248
1 20.0559 26.164 20.3731
1 18.8209 5.20811 25.3617
1 10.2976 12.835 3.73412
1 23.7168 12.995 27.204
1 5.12395 2.09157 16.3238
1 2.57247 1.28176 5.38986
1 8.06819 12.9459 7.69391
1 4.97816 30.3576 23.0674
1 26.4945 3.64162 24.0116
1 25.4201 10.5273 18.1169
1 18.1257 22.3493 2.59845
1 6.16022 9.37954 19.7644
1 7.53168 14.4059 13.5804
1 20.4297 1.49581 28.1193
1 0.55825 30.2449 22.06
1 22.4181 7.09126 12.6884
1 6.23138 18.3017 27.5132
1 26.8286 29.8577 6.36785
1 26.7627 2.39232 24.9625
1 10.5524 8.78918 22.6772
1 22.2648 21.5187 4.54131
1 29.7399 22.5857 10.8265
1 28.4115 6.3277 1.26991
1 0.90482 30.3634 18.5156
1 8.60737 29.4091 14.9873
1 11.9823 24.3572 22.298
1 29.3405 11.6991 26.5696
1 11.4687 15.472 16.5949
1 23.3647 21.984 16.7302
1 15.4672 5.82488 20.2546
1 15.7417 13.188 3.70228
1 20.4459 9.67639 12.3437
1 6.86565 3.95019 18.1244
1 8.10468 28.1853 29.0781
1 10.5941 5.64071 5.52555
1 0.161745 1.50627 4.42917
1 11.8449 2.04738 10.4103
1 1.77148 4.65363 29.3902
1 5.88636 14.5592 15.8605
1 14.7772 8.86119 21.0506
1 17.1314 21.1193 23.638
1 19.8124 23.0774 27.8185
1 3.7442 12.5692 29.439
1 27.5904 21.5203 19.877
1 9.46258 9.93177 25.1257
1 2.51716 26.5957 28.0111
1 3.7316 16.7768 6.99561
1 9.10523 10.9372 6.71105
1 12.5616 11.0673 21.3599
1 17.5742 13.7984 26.8952
1 30.1169 0.315629 14.178
1 29.8415 16.6005 16.6162
1 13.8779 26.2455 6.47452
1 22.0649 25.1301 17.9112
1 1.64296 22.1765 25.3426
1 5.2322 23.866 3.39912
1 17.7236 0.947822 21.2642
1 20.2511 12.6456 25.0466
1 24.8164 1.07031 29.582
1 29.8718 2.58455 1.28669
1 25.122 11.6475 22.1924
1 26.0066 28.0529 17.7485
1 16.2623 10.5996 24.5078
1 12.3264 14.3788 6.4616
1 29.3668 12.4512 17.8893
1 14.1043 23.7513 18.3633
1 13.7858 3.22773 22.1093
1 8.12028 3.16266 14.0378
1 16.4629 26.6265 5.13673
1 18.4905 20.8821 8.04628
1 14.4157 16.2678 21.6273
1 29.5354 16.115 28.6475
1 10.4217 17.7304 10.8613
1 27.993 3.73521 6.8632
1 24.4293 28.9674 1.27387
1 25.5069 2.45181 2.65021
1 24.4681 5.46951 23.6238
1 24.1088 15.4094 28.8243
1 4.74435 27.3498 20.9412
1 0.877826 4.03001 4.95342
1 17.0833 11.8399 24.0887
1 0.250175 0.146823 3.77344
1 9.9178 3.48934 10.6294
1 4.7066 21.8878 8.08106
1 8.15966 26.2722 5.76274
1 9.23757 11.1312 30.3723
1 24.8347 15.6756 4.76024
1 9.93235 8.20097 28.3323
1 3.22458 16.4974 4.16631
1 24.168 3.56486 12.869
1 9.20746 6.29122 4.41306
1 28.6801 14.6608 2.98057
1 23.184 21.5229 25.956
1 16.7546 25.892 14.9364
1 8.19657 9.98453 6.21643
1 30.3434 26.801 2.00166
1 28.936 0.546797 20.5239
1 20.7625 23.0544 17.3942
1 11.215 22.3536 7.16134
1 29.9153 23.9154 11.4267
1 23.7263 27.5819 1.42299
1 4.54581 10.1642 7.25409
1 22.0958 28.3883 25.5594
1 7.03655 25.635 16.1033
1 28.3444 19.5757 13.5505
1 9.90048 18.9994 6.77222
1 4.69073 6.12481 6.10986
1 4.93895 23.2213 28.1456
1 1.30508 17.6193 1.45603
1 9.50192 9.91179 3.41617
1 19.978 10.5765 23.2329
1 15.0226 1.46606 8.63382
1 26.3584 2.21879 22.0881
1 6.25106 25.7445 11.3714
1 10.969 28.1427 20.0456
1 30.2989 18.5634 22.8843
1 20.1852 1.76745 14.6693
1 13.1484 26.7632 28.803
1 7.10462 15.2184 21.2808
1 14.2969 4.18916 2.45985
1 8.08971 6.14859 3.28029
1 21.4934 10.9915 9.59638
1 24.1548 3.1109 23.1393
1 25.8419 25.7634 28.4676
1 19.632 15.1937 8.72111
1 21.0941 2.37983 6.76631
1 6.96152 27.8676 18.5461
1 3.96144 1.23145 28.5876
1 6.04653 15.1353 2.90546
1 5.55969 15.2285 24.5611
1 23.9966 4.4636 11.5527
1 15.8945 15.2231 4.67304
1 3.83068 20.7158 25.2089
1 10.6565 21.2421 3.66565
1 13.3847 19.7161 21.2336
1 27.6096 2.90049 3.69306
1 20.7882 8.41337 16.2306
1 30.3702 23.793 19.0185
1 9.00304 7.27763 26.6437
1 19.3498 24.2084 26.9002
1 11.034 17.0919 27.0645
1 22.883 19.8904 26.2626
1 26.5477 16.8845 28.4374
1 22.6472 27.1332 0.658131
1 26.3812 23.3825 29.6607
1 23.8827 15.4406 0.861769
1 20.5842 14.1394 17.9176
1 24.7088 8.32539 21.793
1 16.3338 1.94097 0.311225
1 1.74996 3.03235 25.8128
1 1.16646 5.5943 18.5905
1 2.05468 5.24174 2.21282
1 27.3772 8.51539 10.1906
1 29.308 1.63664 5.13831
1 29.8881 25.2815 14.3733
1 10.9656 25.3556 9.40568
1 5.90071 13.3869 22.1258
1 19.7356 27.8378 24.2869
1 25.7643 6.81303 3.62048
1 12.7864 4.96069 29.7841
1 3.64251 18.585 28.7568
1 17.3953 5.55213 8.3961
1 20.7461 4.33245 23.6652
1 5.6697 20.478 8.1951
1 9.78177 23.8799 30.262
1 23.9714 7.0757 5.61907
1 13.7262 8.90423 10.7015
1 29.0604 7.99802 15.317
1 25.6948 29.7009 14.9285
1 27.8879 14.0921 19.5658
1 12.4281 0.44554 5.79776
1 22.1308 0.970838 18.8235
1 7.25228 28.553 26.8933
1 8.19232 12.5676 5.29586
1 9.03732 26.0002 11.781
1 12.0622 12.8189 9.75074
1 3.88709 16.0524 19.1499
1 9.5923 8.79666 21.7202
1 16.0253 13.9724 12.7238
1 29.4274 14.7855 25.8104
1 28.6955 1.11482 6.24263
1 13.1443 10.7905 12.9285
1 28.0505 29.4468 16.9438
1 8.23827 18.1761 20.3764
1 5.86678 18.8376 0.634981
1 11.0708 11.4463 1.5852
1 10.3056 9.33451 16.0169
1 28.7549 29.8022 27.4786
1 0.823649 24.9871 5.02689
1 5.4907 23.9885 13.0649
1 21.0752 18.286 26.3082
1 16.8711 9.15869 27.4719
1 20.1023 27.8014 1.45275
1 0.450767 21.601 17.4461
1 20.6416 22.3781 7.81711
1 14.895 24.4417 1.51044
1 21.5203 19.7008 26.1954
1 15.2851 9.57629 12.8614
1 4.41695 2.83383 22.8621
1 12.8395 2.73286 21.1541
1 14.3665 27.3342 23.6981
1 5.20562 11.9372 12.8912
1 17.5844 20.8099 19.63
1 23.0357 14.7712 25.1691
1 14.3952 17.8841 2.7941
1 12.7538 26.2201 19.342
1 15.299 9.89361 17.2605
1 6.0717 28.1816 21.1836
1 29.7533 29.2458 10.0353
1 18.9914 24.8892 17.8018
1 8.21976 1.20389 16.0597
1 23.1594 0.992749 9.72577
1 3.80569 19.2955 7.28185
1 6.42316 29.3083 27.8488
1 25.5571 29.2053 13.607
1 16.4753 22.2541 15.5144
1 18.5604 5.25079 21.3827
1 7.97826 8.79415 9.4782
1 11.3752 2.19745 21.5676
1 14.5328 27.2603 26.0293
1 13.6836 25.3506 3.95191
1 10.057 8.57556 26.8233
1 6.65152 19.9108 1.00248
1 1.60063 27.3803 25.4763
1 13.0623 25.1952 5.21513
1 20.8623 4.40695 29.033
1 13.2869 29.6233 0.624656