4096
Atoms. Timestep: 240
1 16.8111 8.72081 6.99643
1 18.2413 24.9895 19.5983
1 10.1262 9.45792 4.38137
1 20.0965 4.50585 24.0207
1 0.331058 23.2846 6.09663
1 11.4633 14.5079 25.7287
1 19.6972 28.481 8.2382
1 24.0574 1.82659 9.3932
1 15.6654 0.838405 8.72085
1 22.4325 14.53 0.821344
1 19.7786 11.1884 19.6148
1 26.1568 2.02477 13.3736
1 5.93441 30.3608 18.7684
1 16.8922 1.9377 1.35587
1 23.2581 21.6396 16.0253
1 6.44721 27.1699 24.8008
1 30.2131 27.0648 15.8212
1 9.0122 14.5992 25.6177
1 4.6542 12.3518 2.59344
1 3.19349 2.13688 15.7946
1 11.4461 25.4062 12.1838
1 11.4061 23.0091 12.7902
1 15.6353 12.4493 16.1038
1 5.70984 18.7739 25.8777
1 10.3207 6.13349 14.3355
1 22.8554 14.4968 15.6259
1 17.0126 2.74186 8.39352
1 9.58358 3.31053 15.824
1 20.8254 12.5416 0.756512
1 5.58044 27.9925 22.4835
1 8.36227 18.4645 14.2699
1 0.652385 12.5525 0.562134
1 16.1327 21.7033 11.8088
1 9.13276 13.1444 15.7652
1 4.98647 21.0096 9.88196
1 4.07254 25.0999 15.0255
1 25.8288 5.92113 12.0547
1 15.5477 24.7182 27.7378
1 6.53483 13.8561 7.27091
1 29.2417 8.09613 18.6338
1 19.3289 8.5359 15.2438
1 28.168 15.9879 4.94374
1 8.63767 15.8958 10.9226
1 16.4067 14.5303 15.4627
1 17.3868 2.7725 22.8106
1 15.3329 29.1734 20.18
1 14.983 5.09757 21.1442
1 12.0764 9.40758 23.0931
1 9.36462 25.1478 11.8503
1 16.4405 1.14286 13.7484
1 12.6289 1.2631 5.79128
1 22.3157 1.85601 14.153
1 8.90604 17.4033 13.6245
1 16.6237 10.2955 7.40463
1 8.37328 29.6783 21.9301
1 21.931 5.42993 17.2572
1 1.41723 7.29185 15.018
1 8.68462 28.2394 3.78128
1 3.22357 28.7451 1.91787
1 26.8852 14.3298 23.3423
1 1.15997 5.08368 16.4184
1 6.62176 26.2774 5.91747
1 21.4289 15.0523 8.66275
1 6.78144 9.93302 2.85133
1 6.59358 0.13453 9.64308
1 22.8037 23.9439 13.9444
1 15.0626 24.3735 1.40537
1 24.3921 18.9861 12.8677
1 0.757001 4.5075 17.4378
1 19.9005 8.96462 10.3893
1 7.99852 22.743 24.6725
1 20.1647 0.642271 7.97662
1 0.856869 2.09275 30.1294
1 10.4366 30.7191 12.7348
1 26.646 4.95405 10.1898
1 26.0054 27.2605 1.55894
1 5.10984 29.3935 6.11994
1 29.2679 30.3845 24.8485
1 6.62889 11.1472 26.9296
1 6.09106 29.2734 21.9395
1 20.6853 1.44184 4.43348
1 15.8106 11.8111 23.1494
1 18.2963 5.08492 14.964
1 29.6038 21.4111 29.1687
1 24.7872 6.75825 4.64343
1 1.98342 25.953 9.22145
1 23.9808 4.18988 2.93957
1 24.5302 0.0071175 30.1351
1 13.9101 3.90482 23.0886
1 1.67105 8.17423 19.8522
1 20.9659 26.4922 14.7445
1 9.03748 10.107 7.24924
1 23.4098 23.7372 27.092
1 29.6746 14.1249 12.1368
1 25.7492 22.7408 1.76609
1 19.6398 26.2397 11.1484
1 23.9792 18.5163 8.1161
1 7.15068 7.50235 1.6868
1 26.5231 4.66285 17.6285
1 4.95071 15.4777 27.6254
1 10.1436 13.2065 11.3515
1 27.7097 24.2203 20.1033
1 18.4784 0.648971 18.7584
1 13.8337 9.62965 10.1895
1 19.6467 20.4094 23.1226
1 29.9946 18.7535 3.63245
1 5.46251 7.50318 10.4695
1 7.06428 28.6996 29.5936
1 6.66805 6.5198 17.1106
1 7.28322 27.4958 17.9501
1 12.3382 16.1128 12.3774
1 12.8043 21.4459 28.8758
1 25.8079 30.2963 15.1434
1 20.914 23.6199 3.04665
1 29.8657 12.9208 18.1531
1 23.9968 12.3798 12.2647
1 9.69546 26.3822 12.6175
1 30.3356 25.9706 2.82075
1 7.42219 30.4756 3.39786
1 19.6798 12.7253 9.91697
1 25.955 5.78233 19.7978
1 25.123 21.6755 2.71124
1 14.797 28.7606 8.87931
1 22.3017 29.275 16.1286
1 3.4577 12.3118 28.3871
1 15.1064 7.83782 16.0583
1 1.59911 16.1163 4.01397
1 17.7215 17.9819 18.6314
1 16.3219 18.231 11.2394
1 30.5171 27.9965 11.5455
1 29.2818 17.3346 15.7468
1 12.7566 9.1316 10.2031
1 5.56018 19.9121 10.6141
1 10.3855 8.01581 4.23362
1 1.48813 24.6073 9.50672
1 15.788 2.06513 20.5653
1 17.6278 12.7311 9.11852
1 22.3616 10.7654 19.5546
1 12.8791 17.4036 20.5645
1 27.2047 24.6679 4.42687
1 20.3504 0.708829 28.4455
1 8.98186 26.0894 26.191
1 17.0726 28.8124 2.14977
1 13.2204 28.9431 13.3377
1 28.1586 23.7737 13.7297
1 24.7329 24.982 18.7009
1 3.17131 10.1856 14.1791
1 24.6278 9.27853 2.57513
1 17.8021 10.2869 10.4621
1 23.8112 23.9379 17.208
1 28.8081 22.9856 24.5017
1 23.5025 25.1664 26.99
1 18.5841 12.2935 5.03535
1 16.3432 28.6343 30.1834
1 6.56256 23.1418 10.0089
1 25.0031 5.00049 15.9307
1 4.31671 17.815 10.0634
1 10.9201 6.94769 27.3657
1 12.1932 29.1914 6.81032
1 29.808 14.9792 25.4473
1 23.0418 24.6502 5.73223
1 4.40748 0.799399 9.91686
1 2.03641 21.2251 13.0108
1 15.2026 4.20711 26.9575
1 21.99 2.05543 11.3783
1 1.56249 5.78158 14.4689
1 19.6105 1.26607 2.77367
1 18.5776 16.7814 25.6352
1 17.9762 8.47085 15.735
1 16.2682 14.0353 22.2229
1 4.17463 23.7944 25.6967
1 11.7335 3.13321 23.4694
1 11.4699 15.6386 20.1723
1 1.24875 7.49806 17.4809
1 26.4676 9.9184 9.70636
1 21.0538 16.0154 19.9423
1 1.57214 18.7534 5.78351
1 8.50088 29.4898 9.02366
1 23.5407 17.5382 18.9943
1 2.96032 11.6768 1.47106
1 10.7791 3.93257 15.4419
1 16.3331 12.4604 22.0596
1 6.09638 16.8276 23.1667
1 12.1874 6.55235 5.29382
1 1.05003 22.3062 5.14025
1 3.42263 5.32585 11.2138
1 21.1792 3.70625 7.51619
1 3.39929 19.7017 15.8677
1 16.7213 11.2877 16.446
1 27.1176 2.5929 2.6968
1 15.509 18.7222 4.27715
1 4.82899 10.6713 27.872
1 29.2661 10.4752 20.9633
1 13.9912 14.2029 6.4358
1 17.8211 24.8001 22.7115
1 26.3208 30.0165 4.17997
1 1.66381 18.8287 8.32012
1 0.0327959 15.5955 14.2903
1 4.60211 4.00454 4.00495
1 13.308 25.5504 27.3758
1 29.3154 29.5209 22.613
1 28.9446 0.233959 8.96653
1 15.42 21.5289 2.90249
1 16.2125 4.08943 6.68587
1 2.34379 20.3179 29.6691
1 15.335 5.57361 15.6953
1 21.003 23.8596 25.3458
1 27.1126 16.0534 29.5525
1 24.7741 23.0294 21.7089
1 5.02448 7.2538 26.2972
1 19.5906 5.10288 8.74391
1 12.8356 6.34824 1.21626
1 20.0495 22.9546 11.8806
1 14.2848 7.2417 12.665
1 5.99838 20.3645 13.8623
1 9.57226 10.5867 15.1863
1 26.345 21.0396 25.224
1 6.8548 0.870214 18.2231
1 2.68952 8.27733 29.1012
1 10.1199 11.309 30.07
1 22.6206 14.8197 3.54635
1 29.9119 11.1586 16.0796
1 22.6505 4.66479 18.048
1 6.3842 19.4369 1.24483
1 23.7498 15.8687 2.88829
1 27.2058 14.6921 19.5172
1 17.8442 13.9542 6.88359
1 23.5202 4.72249 28.0131
1 3.93077 11.7452 29.4169
1 24.7895 25.876 27.2407
1 7.76913 4.65608 21.5295
1 13.4101 14.9018 10.678
1 12.6247 20.033 13.086
1 1.78558 8.89727 8.36197
1 5.33868 29.0014 12.1167
1 29.0379 21.3777 17.241
1 29.4267 1.36597 8.11164
1 5.1815 10.4706 12.4735
1 21.9602 8.71576 4.66531
1 28.3581 18.7376 29.1347
1 14.7828 0.684995 25.0587
1 19.5277 10.6952 23.3307
1 26.7992 10.6925 3.31307
1 15.8742 23.9194 28.6998
1 17.5488 16.4126 3.42807
1 9.84574 16.7074 3.82254
1 7.68424 17.6495 15.5148
1 13.6692 22.3801 1.81327
1 26.5404 26.564 23.7722
1 21.6037 23.5921 16.102
1 29.1407 18.481 2.55241
1 9.57113 6.52982 16.7521
1 14.9717 17.1446 2.62646
1 12.379 6.79823 -0.142345
1 6.16396 10.3426 8.15725
1 28.0137 25.6786 19.7579
1 21.196 1.04233 0.819777
1 4.85862 8.00208 28.5333
1 28.1332 29.407 14.8772
1 26.2452 4.59208 13.939
1 14.1537 11.2253 25.4399
1 11.2576 0.173476 3.79828
1 20.5574 17.1909 28.85
1 27.7426 15.2991 27.3331
1 7.39569 12.8742 11.3799
1 11.987 19.9463 17.0398
1 12.1302 2.63872 30.2985
1 6.76605 6.49337 29.9909
1 28.3168 2.84807 8.71297
1 30.3556 25.8095 5.67158
1 7.14676 2.76192 11.9558
1 13.525 8.39343 6.74438
1 19.2251 9.76608 22.1763
1 1.01279 15.2366 24.9802
1 0.542785 21.9586 24.0561
1 9.62996 11.7469 4.33569
1 25.4897 1.73523 4.87129
1 6.39341 29.558 6.62147
1 4.35919 17.6534 19.1216
1 8.27201 3.55892 17.9269
1 14.7442 15.3072 10.3982
1 27.5714 26.1977 22.5534
1 12.9646 7.41682 2.16351
1 24.169 23.3953 8.80722
1 26.9232 4.98203 12.7346
1 11.2273 28.614 24.3736
1 19.4277 26.4713 26.061
1 24.8662 20.0813 1.71274
1 17.0954 27.5813 8.2578
1 16.8346 10.8601 4.59304
1 13.9556 13.2374 9.33996
1 18.3561 20.6488 12.1993
1 30.3652 17.4066 26.1233
1 18.9485 17.3248 13.7954
1 24.2524 10.4931 25.322
1 0.372894 14.0966 13.8186
1 13.3062 11.5174 20.6878
1 10.7533 25.4393 3.81029
1 15.2965 21.2657 17.8967
1 21.9214 18.573 9.99392
1 13.0421 15.3383 16.3353
1 29.4156 10.6419 17.819
1 25.5665 16.6309 29.3751
1 5.81694 19.1923 14.2755
1 6.58392 21.2496 8.43087
1 26.0573 25.8579 6.65456
1 6.77443 24.9038 22.0968
1 27.1202 24.4921 29.7867
1 7.1786 22.4538 21.3866
1 19.0152 30.066 17.6776
1 21.6252 16.695 13.7158
1 26.4723 3.31581 6.75929
1 17.5341 5.38956 23.4147
1 27.7321 18.8125 13.684
1 25.7902 7.15901 12.9552
1 6.50221 0.825955 25.1638
1 16.3133 5.95103 23.1095
1 7.2915 9.13259 19.6908
1 22.0807 21.7688 19.2996
1 21.6721 15.2743 24.7104
1 23.1517 17.0332 15.7585
1 24.5797 5.80253 16.7803
1 2.57012 17.156 24.9057
1 7.95764 1.34242 16.0398
1 12.803 21.9796 21.6647
1 14.4796 21.0725 13.8145
1 5.72471 23.8439 16.545
1 7.35783 18.2156 28.5129
1 7.03033 10.7029 0.335071
1 10.0858 8.39247 19.5851
1 19.2754 22.6299 14.186
1 22.4539 30.2576 22.0778
1 13.8369 6.12173 21.4975
1 26.4923 19.9201 27.2798
1 13.6437 0.609633 5.10026
1 4.82429 2.81183 4.68657
1 18.3241 29.5574 1.89756
1 20.9605 12.3637 25.3707
1 21.1103 12.6171 5.29792
1 29.5471 22.2176 3.36685
1 3.80139 7.07643 20.8586
1 17.4287 21.156 28.4868
1 25.2257 23.5921 18.6587
1 28.1308 5.63519 13.2107
1 7.83663 27.4821 16.3942
1 1.22504 8.87543 13.877
1 29.1119 14.9483 22.5411
1 12.6368 19.4463 20.9989
1 27.1314 8.8238 7.2844
1 3.14373 16.7645 10.7785
1 14.7881 5.61697 9.12617
1 14.6089 23.339 29.266
1 4.66644 14.235 16.4375
1 20.0106 7.7637 22.6116
1 13.8959 3.43721 5.41473
1 7.23908 5.55201 16.3508
1 0.856688 0.460459 16.3427
1 19.0802 22.3889 24.6784
1 8.34751 29.2223 1.28636
1 16.0906 3.56538 4.15084
1 4.10901 13.1033 17.1524
1 26.5022 27.0991 28.5034
1 19.9217 28.07 16.1636
1 22.9578 28.7459 0.690463
1 9.73678 13.3828 17.1117
1 10.8759 22.4054 28.2333
1 7.47591 22.6186 2.78846
1 21.4447 30.4211 7.61249
1 10.3018 27.0068 15.8245
1 11.5316 29.8008 0.69496
1 6.73602 4.64557 15.4483
1 22.7934 23.0657 1.32332
1 9.18647 10.2987 17.4194
1 2.88687 9.15117 23.4931
1 5.51465 19.286 6.65137
1 8.25209 3.31147 5.05461
1 20.6373 15.9233 14.4575
1 22.5411 22.8646 22.8337
1 23.1076 8.30013 5.4686
1 12.4972 19.2831 27.2709
1 22.6266 2.68154 15.3571
1 7.95073 7.49031 22.595
1 5.11757 3.70875 29.5042
1 29.1641 26.1273 24.3054
1 22.8699 29.0357 9.11542
1 8.34155 6.41427 26.9726
1 28.238 6.641 2.20972
1 7.73818 1.8223 24.9107
1 8.30784 9.88949 11.0188
1 12.6882 26.3823 15.9669
1 19.5687 19.6667 18.8457
1 1.44179 13.4126 18.0246
1 22.7179 3.24601 17.8609
1 22.3948 25.9442 27.5448
1 12.2695 7.77318 11.1769
1 7.93687 23.1974 4.25319
1 19.9473 18.7134 28.341
1 26.5126 27.7 10.6325
1 18.4214 24.952 2.92079
1 19.1268 18.0514 22.313
1 8.92375 3.87595 24.9434
1 15.6208 5.03772 4.50876
1 19.6971 24.0288 26.5548
1 2.84422 7.70362 10.6163
1 30.4188 15.9568 4.30723
1 5.22954 5.09497 28.7875
1 28.5051 4.30171 19.7835
1 2.09808 1.88242 14.9087
1 24.0092 8.97144 12.6652
1 6.05017 13.1936 14.8546
1 5.50267 23.8943 1.91221
1 3.0818 15.0247 0.567749
1 25.195 18.0402 22.5887
1 11.939 2.51382 2.32394
1 23.6583 12.3657 10.5545
1 24.3435 26.1688 22.6466
1 6.17526 5.55364 27.9235
1 7.84937 30.2035 23.1562
1 6.54992 5.26854 22.5192
1 27.5795 12.4133 28.3341
1 7.01028 24.4432 4.53809
1 1.60373 0.205318 28.6995
1 14.7509 27.1152 5.4025
1 28.1947 4.72221 24.7792
1 22.3753 19.6515 11.6028
1 24.9658 25.6502 7.55663
1 16.8776 11.8063 0.983947
1 11.5194 22.5911 20.0314
1 19.0738 29.0766 15.5986
1 10.8955 29.5628 9.34829
1 12.3213 22.0284 1.38892
1 18.9813 13.0759 25.9601
1 22.1742 22.1013 28.8083
1 28.3677 11.617 3.2683
1 16.4952 25.2768 8.80447
1 9.97859 5.10596 27.5323
1 10.9011 15.2292 10.6341
1 8.71926 13.077 18.4357
1 4.23319 17.5602 20.652
1 3.9136 29.1897 18.943
1 2.62582 15.4578 10.2074
1 25.3674 8.36902 12.3763
1 3.48478 8.03936 2.40587
1 12.3989 27.3909 9.22896
1 7.60099 15.6563 28.0445
1 21.0148 15.1855 22.378
1 27.6086 14.5029 18.3092
1 2.75507 4.1792 5.80549
1 6.06442 19.3518 5.43449
1 21.5006 21.1743 27.9185
1 14.6853 30.0898 21.3142
1 25.9648 5.17948 24.5081
1 13.2619 9.78859 23.6029
1 13.0851 2.56075 6.24706
1 4.94255 23.4588 9.49081
1 6.99305 14.4046 11.7942
1 14.8407 27.031 1.51176
1 15.3078 6.65681 1.89473
1 16.4894 27.6892 25.568
1 8.26534 1.16448 21.0197
1 6.59171 0.257362 27.8237
1 11.3645 7.55316 21.2345
1 28.0427 14.8298 23.1116
1 18.7576 2.0182 5.0573
1 16.6678 5.13953 29.0511
1 0.722143 12.4224 8.26367
1 22.2843 28.6944 25.5482
1 23.2039 30.0231 5.53247
1 16.9509 24.474 14.2851
1 3.67855 29.7811 4.59447
1 2.93209 23.8028 2.11485
1 19.5947 25.394 20.0619
1 17.5228 11.1524 27.5746
1 8.1834 16.1923 23.2561
1 11.2728 18.3563 5.7047
1 14.7071 11.2643 11.3364
1 7.58688 21.1816 10.5091
1 28.5209 8.87259 16.3679
1 27.3446 10.9476 15.6002
1 11.8131 28.2747 13.0152
1 10.708 10.6383 24.2606
1 22.4615 2.41075 16.8952
1 29.1087 13.3002 28.1049
1 14.3462 23.8649 20.9265
1 7.90292 24.8638 18.6517
1 4.89771 17.774 28.6655
1 9.028 17.0142 19.1085
1 27.6802 14.8909 13.0279
1 11.3797 12.7766 19.1815
1 24.6929 11.4101 12.8039
1 2.19459 13.3386 20.6677
1 27.5184 26.5316 1.28158
1 11.7836 24.172 9.7312
1 11.2594 15.5884 21.4111
1 15.6815 2.4739 10.6037
1 5.02714 3.23211 7.59417
1 10.6631 7.49482 2.96178
1 25.0372 27.4383 8.89049
1 17.9662 18.6618 15.9306
1 14.4858 7.11264 4.22512
1 16.6908 11.9263 17.952
1 23.8309 8.72841 14.1924
1 23.823 28.6112 21.6117
1 21.3195 4.23593 26.8187
1 21.0814 19.6071 9.42897
1 14.0444 16.5604 6.59495
1 25.5569 5.03755 2.3775
1 29.151 2.16393 12.2509
1 2.91001 13.0397 3.60036
1 27.4988 1.22468 23.6034
1 30.2691 9.58619 1.31363
1 11.4566 2.88398 13.1966
1 13.93 25.3275 2.02406
1 26.3657 0.517077 23.311
1 20.3228 5.3951 0.615286
1 16.298 12.9382 2.98169
1 16.7834 21.8423 14.7873
1 5.85581 23.3731 18.7504
1 0.26782 25.6385 13.7854
1 3.60601 5.74654 20.0779
1 3.5686 28.555 4.02712
1 15.8352 14.3624 12.1574
1 24.1114 22.7826 20.6334
1 5.42725 26.344 3.75342
1 18.4729 17.9079 17.2289
1 7.91739 3.24747 21.802
1 7.40476 4.31198 19.9876
1 22.5069 13.5072 30.0305
1 23.8945 28.6963 6.13498
1 21.6176 2.53833 23.2031
1 20.3308 8.76944 25.0807
1 19.3935 29.7785 28.3873
1 19.7343 28.3692 20.3156
1 10.6136 29.706 17.4099
1 29.8564 9.21922 27.6525
1 21.4454 19.8751 21.373
1 6.35584 16.7048 12.6514
1 25.0199 21.2749 25.3819
1 24.827 25.0323 22.3113
1 24.5705 12.5569 0.699313
1 3.57587 27.292 24.1246
1 2.75335 14.0233 21.5108
1 6.18698 11.2426 11.7302
1 26.5979 10.9571 6.02849
1 19.6207 0.98497 22.6008
1 15.2399 2.59764 5.19427
1 11.8814 18.4275 8.4453
1 25.1357 20.9394 12.0696
1 15.305 1.1206 21.4511
1 26.899 9.42799 13.5383
1 1.8004 19.4076 25.9134
1 13.3419 19.6776 25.8875
1 24.2089 22.821 4.19874
1 15.5306 21.9148 23.9405
1 26.4112 14.3607 27.1324
1 23.133 26.5674 13.2935
1 10.186 22.6729 5.52083
1 1.25259 6.48592 4.21268
1 23.28 19.2476 29.6414
1 19.5328 2.87532 0.848436
1 27.2938 17.2802 19.0312
1 6.48763 17.9272 5.47274
1 4.53513 26.3165 21.3718
1 3.32367 22.442 6.92975
1 9.49603 12.8905 3.45458
1 28.974 10.2052 29.5033
1 5.37867 10.8961 17.2086
1 2.20694 1.50952 28.2184
1 26.3794 25.7242 26.1306
1 20.4225 14.4252 6.91502
1 2.51836 27.9057 4.38115
1 9.67458 27.0932 9.07959
1 3.85594 24.7448 17.9835
1 27.7778 11.0996 29.0657
1 16.0757 13.4831 29.9626
1 10.6098 21.6142 10.3134
1 13.4672 26.9822 17.1604
1 7.75072 27.2995 3.82027
1 1.33924 4.3982 18.705
1 29.466 5.48049 22.9882
1 3.89641 16.2134 27.233
1 15.4631 18.8627 22.1366
1 1.52028 4.05901 28.511
1 28.1846 23.3745 19.0048
1 23.8595 3.62642 30.0347
1 27.2925 30.0389 19.4986
1 9.95059 21.9161 22.6028
1 11.6758 29.0126 3.31591
1 28.7818 18.8459 7.75557
1 20.3571 14.8978 9.4122
1 1.60347 19.0752 23.7019
1 29.9457 2.13896 15.2757
1 9.03337 4.33034 2.39062
1 9.76969 18.5681 5.29265
1 14.9207 28.9809 23.8606
1 6.78475 17.8341 26.6755
1 16.2472 1.84632 26.4048
1 10.6874 7.20524 15.7437
1 10.2497 15.1769 6.44126
1 17.764 22.3643 20.1384
1 3.03227 4.44453 1.88668
1 18.3799 0.437292 4.58462
1 13.7997 20.7977 25.4442
1 27.7225 21.9814 19.0926
1 2.20063 9.19305 26.4465
1 21.6298 29.5946 9.09637
1 30.1373 10.1931 28.4402
1 13.7619 19.5729 17.5718
1 11.8154 7.26891 7.77806
1 22.968 11.194 27.6633
1 27.5681 20.8178 1.84539
1 26.4112 15.7565 25.4676
1 9.778 28.9745 22.3839
1 18.6857 26.3559 3.20454
1 19.0537 16.2689 7.84216
1 14.8758 15.9443 21.724
1 9.28747 1.70383 23.247
1 6.797 20.1559 11.4144
1 25.2008 20.6507 21.8768
1 19.5277 14.0515 1.12046
1 1.29961 27.1266 16.5475
1 25.8306 26.5787 9.98351
1 11.4588 10.0716 25.4901
1 19.3027 3.40041 19.4373
1 21.2377 7.04364 9.35256
1 18.1169 28.5103 7.81724
1 11.0169 23.7711 7.04656
1 23.1327 7.91227 21.2361
1 4.01514 20.5932 2.63206
1 15.374 10.758 26.1799
1 24.7575 28.9485 11.8534
1 9.73342 17.9444 4.09416
1 21.2558 24.8488 16.2666
1 24.1551 10.594 8.72142
1 23.6104 2.5596 18.8384
1 15.4168 8.93954 4.64727
1 6.6393 3.69599 2.11428
1 26.3454 6.37699 20.8875
1 8.15819 12.7452 9.99623
1 2.32739 1.21335 13.6514
1 26.5377 13.3478 28.2704
1 18.1362 24.8858 14.9594
1 1.99805 6.7059 16.4226
1 18.2368 8.79782 6.4939
1 28.7919 20.4341 26.3414
1 19.3156 11.4844 18.4765
1 26.303 3.33547 28.1747
1 11.7959 27.0668 13.653
1 10.5353 3.808 5.12009
1 26.859 26.2782 10.9217
1 16.8777 26.306 7.70084
1 15.7641 7.758 7.42402
1 8.07433 25.3072 9.51583
1 25.6175 24.1574 13.0665
1 13.8585 10.9619 8.82667
1 16.1294 6.77119 24.3778
1 10.4435 0.83969 25.8319
1 17.5787 0.561593 6.8793
1 14.5092 9.77852 8.62897
1 6.78987 9.70331 11.0769
1 3.61493 28.0466 26.424
1 22.5339 27.6873 11.6104
1 25.3147 25.2823 13.8767
1 14.3884 11.4357 4.49609
1 8.67021 25.0087 0.292879
1 10.8504 20.0434 29.1877
1 11.7442 4.35339 24.3258
1 15.9039 25.1266 14.9241
1 -0.16327 9.01142 13.8471
1 4.74755 7.95822 13.3247
1 24.4303 25.9685 29.4484
1 13.2196 19.8659 5.96105
1 6.78913 7.98102 25.1026
1 1.76397 22.538 13.0289
1 4.74479 14.2047 10.5054
1 19.0264 10.093 29.3646
1 25.9375 14.5705 25.0196
1 29.7814 11.287 19.897
1 26.0973 28.4479 28.399
1 4.87868 5.33207 20.3656
1 27.2817 20.5305 4.18752
1 0.839436 25.8855 4.23734
1 20.9176 8.92708 20.5131
1 29.9472 8.91878 9.57514
1 18.7274 9.2368 19.8437
1 22.1047 18.5713 5.36754
1 7.88129 24.0521 29.3522
1 26.1108 3.41796 29.5416
1 16.1775 9.35161 2.40675
1 20.9385 2.52894 0.676402
1 13.8617 5.00503 13.9094
1 5.17599 16.9847 8.30394
1 2.18305 15.6051 28.5445
1 22.0149 24.3838 11.6275
1 14.7199 24.546 15.39
1 9.5663 26.8788 29.0494
1 2.48825 1.4899 24.5558
1 16.1695 16.5571 21.3409
1 9.93318 5.51854 20.3917
1 9.35355 18.5078 27.3453
1 7.29439 28.6645 6.01736
1 24.1414 6.53598 22.7986
1 28.358 22.6411 3.65981
1 20.891 13.8449 22.9583
1 10.7248 1.26458 23.4916
1 5.50926 2.61038 15.6676
1 12.3991 20.6422 1.16987
1 11.8165 7.83855 4.53055
1 24.5528 27.8944 24.0847
1 15.0179 4.77515 5.96808
1 14.7405 27.7604 16.9064
1 25.8985 28.8542 24.6946
1 22.1448 21.4011 2.40285
1 28.9362 8.73198 1.33981
1 12.8314 6.76628 10.2207
1 17.7276 28.0747 26.3978
1 9.60875 1.15713 14.5761
1 23.0361 7.88103 24.3735
1 10.3519 8.48915 9.70704
1 20.3579 27.8411 2.31529
1 28.5065 6.5202 11.94
1 14.9 15.542 25.9909
1 8.8468 5.93124 14.3555
1 19.5021 26.9311 1.98923
1 26.4305 4.46448 21.746
1 19.4564 2.69745 11.6425
1 21.7354 3.08802 10.1947
1 18.3899 26.4086 14.8739
1 15.6041 14.5525 29.4099
1 25.1416 11.4363 23.2727
1 17.3024 17.633 5.81486
1 28.5857 12.9302 1.3235
1 14.8277 20.9506 30.1676
1 2.38119 18.9377 6.84319
1 14.4838 11.9292 12.5009
1 3.03258 9.2096 16.4429
1 27.999 5.69813 29.9266
1 22.3236 8.72404 20.4282
1 1.39186 12.6266 22.9092
1 9.53933 8.091 13.684
1 2.88899 8.24907 20.695
1 1.04701 8.72529 27.244
1 24.6805 14.2484 24.7467
1 3.26753 14.3641 10.4515
1 11.514 14.2861 18.4817
1 27.2833 9.63092 24.6177
1 3.12668 1.13584 6.56546
1 20.0595 22.9786 8.9626
1 3.01714 11.2352 5.15978
1 7.63669 17.2144 12.9504
1 28.3076 5.8836 28.6601
1 1.65382 3.46056 14.3436
1 3.78346 10.7253 12.8085
1 18.328 5.74439 16.3749
1 23.8279 16.4178 24.0811
1 24.0331 5.77587 5.22548
1 24.927 18.3322 11.5816
1 24.2577 18.8356 2.45716
1 17.1095 26.6301 21.0367
1 24.0287 3.41801 23.7146
1 3.29565 9.10282 21.7172
1 17.6299 7.29133 15.1577
1 17.0996 14.3095 9.75084
1 28.9317 14.9155 16.1006
1 6.57962 22.2087 0.638037
1 8.94902 14.2374 14.8824
1 18.0067 20.3176 18.597
1 14.676 3.94971 12.9527
1 17.7983 25.6417 6.74003
1 27.1573 3.61172 14.3741
1 27.7309 1.12552 6.43868
1 22.1999 12.4339 17.3389
1 17.0285 11.37 23.9925
1 25.1503 3.89016 21.7427
1 2.4881 20.0753 0.764474
1 19.6991 7.87499 20.0478
1 23.0704 12.2807 19.8688
1 21.7757 19.8347 5.68403
1 15.3402 26.1179 12.58
1 23.831 21.0578 27.5308
1 10.874 29.6435 10.8497
1 7.88416 14.301 27.9044
1 22.2062 28.9188 1.80946
1 29.9296 4.70617 8.17355
1 22.7306 7.88012 17.1808
1 13.5392 24.0626 27.3832
1 0.595369 21.9495 29.1245
1 4.12485 29.9757 27.4445
1 4.33991 28.7509 20.1881
1 2.13521 30.199 26.6238
1 22.4546 9.10966 24.0277
1 29.5274 9.65106 4.31132
1 3.33711 20.1438 6.3975
1 14.657 23.1636 24.5349
1 3.51631 2.48253 0.850414
1 27.3412 5.51348 21.7757
1 10.7954 10.7983 11.8906
1 4.42429 6.78356 22.1453
1 28.5952 28.6629 5.53594
1 10.9487 1.68453 1.7135
1 15.7577 18.2397 7.33897
1 21.0905 5.3599 13.2727
1 8.34886 25.8198 10.9436
1 22.9183 26.0886 0.749142
1 22.7926 8.75544 0.900231
1 25.2556 19.4783 22.8428
1 8.56221 25.8 16.8486
1 26.5961 8.18132 19.4294
1 1.58007 22.3147 22.8999
1 13.3282 22.5823 5.70669
1 19.7703 16.6141 2.24927
1 6.29201 15.4167 4.8939
1 10.6404 16.5153 0.642878
1 18.1354 4.58546 1.31773
1 21.8722 20.6925 22.347
1 9.05866 15.6956 3.45658
1 13.2118 8.75165 24.8637
1 30.3659 2.97957 2.01589
1 24.9618 8.99583 25.425
1 30.3222 12.3837 27.5786
1 2.77767 7.94655 25.7195
1 24.1002 13.7913 6.57047
1 10.3585 21.6685 7.42049
1 1.39245 16.8048 25.6759
1 22.3658 2.54203 1.25314
1 25.7302 5.37765 0.672667
1 6.50103 0.317833 22.8129
1 16.8458 7.43164 10.8657
1 0.227883 23.6829 20.061
1 10.9582 18.5392 12.6241
1 28.6321 5.36426 1.87119
1 23.1778 23.306 4.81906
1 12.9414 14.6035 18.6895
1 28.6333 8.71177 29.8421
1 22.4745 10.2613 26.5508
1 9.59039 26.0743 3.18346
1 6.8129 23.0336 16.743
1 18.5812 16.099 18.8706
1 22.0932 19.8466 29.3307
1 9.71804 15.5981 29.8659
1 1.31545 4.2943 5.83848
1 6.62197 2.66057 21.57
1 6.43288 28.6436 14.5501
1 9.08344 7.79696 18.886
1 11.2738 13.6379 10.6648
1 11.2593 10.1062 4.61895
1 21.1084 1.74711 20.794
1 1.97424 28.4161 9.92616
1 11.0233 5.24376 7.29952
1 6.54908 15.0954 6.28137
1 17.435 20.1806 7.97758
1 9.34545 22.8803 10.2727
1 16.3996 10.9668 20.1372
1 26.7515 17.9419 9.42889
1 30.5354 -0.145069 11.1403
1 16.0309 15.9677 25.2859
1 1.75027 14.1332 25.8831
1 8.88875 1.22823 19.5072
1 13.9973 17.842 11.8632
1 15.702 4.05212 10.8521
1 25.6482 16.7301 15.6509
1 18.1383 10.0904 11.6625
1 29.0931 10.8667 26.2225
1 10.9038 7.82898 25.4398
1 28.726 22.5249 29.6663
1 8.99794 1.35515 17.1179
1 26.4134 16.5498 21.2726
1 25.5196 26.3972 3.64681
1 5.25003 21.5282 0.930271
1 22.7864 6.12016 0.485933
1 5.20205 22.7994 14.6101
1 14.6259 8.50803 7.82845
1 27.2463 18.9569 23.903
1 24.4735 2.25608 6.21621
1 25.3763 23.8622 2.24581
1 1.26466 24.4084 17.3555
1 2.43231 17.2518 11.8913
1 11.4069 17.5667 30.3114
1 21.4909 0.773378 14.2987
1 16.5793 17.93 9.8629
1 3.92063 12.2844 0.668143
1 0.473787 0.207231 24.977
1 14.9925 16.3626 14.4392
1 27.5864 21.4422 3.07577
1 5.66788 9.37286 7.39151
1 25.8901 28.2883 12.0193
1 3.60365 8.79912 15.0031
1 13.8194 21.9264 11.6963
1 12.9618 16.6239 27.165
1 1.2626 27.901 21.6857
1 24.4786 4.60514 24.5553
1 21.1698 14.77 26.2416
1 16.4755 7.83437 13.9607
1 25.6331 13.1318 8.80997
1 30.3175 29.6404 16.0488
1 24.5595 16.5042 3.78238
1 3.43408 5.01994 4.46778
1 20.8802 30.0081 26.6959
1 19.7749 10.5122 27.0377
1 24.3971 18.5404 28.5965
1 25.9919 13.0061 4.95034
1 26.3321 16.7532 6.17623
1 11.7434 17.8778 26.5664
1 25.2563 1.13333 23.4668
1 9.42948 6.97569 30.499
1 2.58895 17.8352 30.3298
1 10.4403 17.589 27.1015
1 29.4847 7.6485 20.0169
1 22.9066 16.1078 18.7578
1 2.72345 5.96636 28.8272
1 19.7066 4.07131 17.2909
1 9.72439 8.48237 25.7747
1 11.8576 17.1667 8.98314
1 1.5682 19.8765 22.1984
1 20.1291 17.2314 19.1924
1 24.8419 1.18858 21.6228
1 26.8667 11.5171 21.7276
1 25.0836 8.72969 28.7894
1 3.8907 2.99139 14.1243
1 19.3638 23.8614 2.43573
1 24.729 20.2116 26.4876
1 6.72595 18.1209 23.6711
1 16.0619 28.9629 25.058
1 25.1678 20.0066 19.2196
1 6.90148 23.3272 7.02138
1 27.3133 2.41025 5.91374
1 2.61505 25.5851 23.8236
1 25.8421 26.3931 13.4099
1 23.8286 22.9045 13.9031
1 1.57235 23.7986 8.47355
1 14.9042 5.72959 14.4367
1 22.2412 18.9465 24.2954
1 20.3675 20.66 9.17729
1 8.08197 20.6969 15.018
1 26.5116 21.424 21.2706
1 16.3966 25.8326 3.88079
1 17.4315 29.2085 23.1599
1 19.8344 21.7333 16.9627
1 15.9496 6.57606 27.7289
1 11.7425 10.0208 28.3247
1 25.8901 20.2756 28.7068
1 6.29051 6.64292 11.2641
1 30.5349 2.18995 8.6401
1 8.85531 17.2751 8.75792
1 10.9966 25.1747 29.2054
1 29.5385 3.8461 24.517
1 27.6598 12.1727 22.5714
1 13.9921 20.4795 1.57961
1 5.18216 12.1633 17.4481
1 11.0243 16.6171 7.98946
1 11.2687 2.13207 25.8755
1 3.17962 27.095 28.6139
1 27.2086 11.3665 12.3066
1 7.8261 21.4029 2.3727
1 3.70222 1.00403 11.1456
1 29.924 1.70962 22.4897
1 8.01767 12.4851 15.9749
1 20.1231 20.1279 3.4017
1 28.9891 21.4918 7.23273
1 30.6026 8.4839 3.94244
1 3.37948 27.9718 18.5352
1 6.20749 3.47281 13.3121
1 12.5839 24.4797 22.9048
1 26.0736 12.0519 24.4341
1 12.6608 13.9286 13.9121
1 22.7661 19.7861 17.7162
1 12.5093 28.7763 23.8817
1 13.0285 18.4408 1.86763
1 19.4119 10.2303 10.05
1 10.4431 9.68224 15.6193
1 8.77589 27.9963 24.0789
1 10.8688 8.13426 11.1672
1 23.5841 5.97311 9.26334
1 14.3698 0.81427 7.57051
1 10.7856 4.57604 0.746277
1 9.43666 16.3517 14.3446
1 19.6925 4.48917 26.8943
1 14.4435 23.0595 19.8058
1 19.1409 25.1756 26.1767
1 28.9084 16.2422 25.3276
1 21.626 24.4972 19.1371
1 7.05885 11.3167 25.4344
1 1.95043 28.9878 2.48531
1 29.1271 19.2375 0.796556
1 10.9215 3.64015 8.53618
1 9.44652 11.9305 18.6804
1 19.7097 6.48549 30.0017
1 0.594213 0.808744 20.2291
1 1.2469 20.1981 13.9407
1 18.1365 28.0348 10.7583
1 20.4587 29.0673 22.5243
1 3.61925 22.6091 23.6811
1 7.22033 25.9708 1.56535
1 22.3091 5.67383 23.3697
1 22.496 13.101 24.5767
1 24.8305 2.38152 2.03702
1 29.0696 1.19028 0.643732
1 25.2387 11.6406 26.9462
1 25.4962 0.509996 18.2991
1 15.5046 12.5762 29.061
1 7.73343 10.2827 4.07637
1 29.5959 10.5325 23.8961
1 16.8137 19.1131 20.5718
1 14.3216 1.97165 25.6534
1 9.286 2.95425 17.1506
1 14.4031 23.3724 5.23312
1 19.3409 19.5633 6.1679
1 13.0532 18.7896 22.2988
1 28.3943 13.9835 0.217279
1 14.0732 18.9272 9.5331
1 28.8167 6.7096 3.87194
1 25.5243 28.5081 8.20163
1 22.423 5.9233 4.82101
1 25.5032 28.6479 26.6862
1 26.6823 19.345 29.5112
1 3.87445 25.4053 19.2587
1 7.0604 5.44874 0.88113
1 11.2058 16.8216 22.3119
1 30.1342 4.53853 3.99723
1 6.32856 0.989683 11.7849
1 3.22095 21.7517 2.88167
1 6.83939 6.19005 2.08823
1 12.2872 9.41843 2.15054
1 27.0536 14.694 30.4506
1 12.2674 12.5872 27.9681
1 3.23304 10.8068 27.619
1 26.7316 1.271 17.8859
1 10.7586 1.36542 28.5857
1 1.62144 6.71909 5.70104
1 19.6922 19.9485 24.549
1 17.563 27.8541 17.5621
1 15.6556 29.879 17.2765
1 29.4465 23.7886 29.5817
1 27.492 3.97001 20.9252
1 19.8432 25.2364 16.4601
1 14.1754 23.2354 10.6602
1 29.2366 22.9045 6.97868
1 24.0508 27.2812 29.3626
1 3.98424 14.7524 8.38734
1 25.2183 29.7983 25.8146
1 6.06775 23.1473 13.5944
1 28.07 20.0718 13.1378
1 8.13797 11.7944 0.841575
1 6.14643 2.77225 9.65576
1 7.95965 23.6205 26.7527
1 3.98709 16.7797 29.2484
1 16.3384 9.37502 28.8592
1 23.4373 1.25342 21.7677
1 13.4502 4.74654 3.36469
1 4.98656 2.02527 26.8094
1 11.0344 0.690733 8.32349
1 12.6941 25.2611 19.3576
1 3.00072 20.5454 20.2335
1 15.3392 28.0374 22.9045
1 14.5096 30.3205 6.07807
1 4.40466 18.9171 18.7682
1 16.4155 30.0447 8.66717
1 7.96984 3.74221 0.280842
1 15.1141 8.52407 12.1884
1 25.2043 30.2937 20.6847
1 24.7437 27.7757 4.16271
1 21.3028 16.5467 12.2592
1 21.7483 2.92446 12.6295
1 4.12088 24.9675 26.1002
1 5.11422 25.9131 26.1377
1 5.81819 22.2493 3.76209
1 28.0892 20.9145 23.3687
1 23.6155 1.0495 14.1878
1 13.506 11.8025 5.58466
1 3.85747 21.6135 22.4082
1 13.2226 17.6764 4.19274
1 14.6548 15.8997 23.2348
1 30.4503 7.27051 25.0721
1 14.1695 7.4313 20.9849
1 0.969245 23.1885 15.0843
1 18.2641 13.4956 22.6331
1 17.3628 22.8106 21.7095
1 10.0617 19.8075 26.6186
1 18.254 22.6226 22.9076
1 25.1513 16.9319 0.979241
1 26.535 1.25289 30.1762
1 26.1888 24.3634 28.9384
1 27.581 14.8384 2.69677
1 18.6596 18.7046 24.5328
1 23.2097 9.78244 19.7552
1 14.4034 29.0384 6.50125
1 1.54939 3.22504 26.3303
1 0.831975 10.1573 23.4783
1 0.9041 5.89186 1.55908
1 27.9115 6.90442 14.2768
1 25.0194 3.84588 8.51152
1 4.61022 27.1713 10.3558
1 15.229 24.7884 9.19578
1 4.00167 15.4499 25.4799
1 12.0184 22.8751 21.2608
1 28.0956 5.53122 26.0938
1 10.8185 7.37079 23.9835
1 8.38268 22.4813 27.3597
1 18.3565 6.61211 3.79038
1 15.4142 29.9161 26.1076
1 8.46158 20.7012 5.07406
1 8.03915 20.1091 27.5986
1 26.7455 2.64844 9.27566
1 18.9691 5.35686 6.1587
1 26.6876 8.6807 10.3616
1 21.7373 25.7303 11.2106
1 22.8221 9.98338 18.161
1 7.34159 5.91182 28.7555
1 18.7245 28.3683 21.0641
1 8.28556 25.2815 28.5742
1 6.01651 10.6281 1.53953
1 9.65826 2.01188 6.6046
1 7.24572 16.179 7.04894
1 5.81371 20.72 17.8852
1 9.93148 9.98675 19.9427
1 19.3859 15.996 9.21978
1 27.1258 11.3626 2.30921
1 2.57992 4.46477 8.08883
1 19.6822 6.50878 16.6391
1 1.25124 30.3303 18.7016
1 0.580046 17.4379 22.419
1 3.74958 19.7979 27.4236
1 9.0798 10.3052 3.51926
1 6.94631 7.72542 13.4577
1 3.6669 4.91783 0.733149
1 30.0121 27.4791 2.50177
1 7.94114 23.1096 12.1836
1 25.1015 16.096 21.4476
1 23.7492 7.9369 25.4737
1 21.7576 29.1149 29.712
1 1.0675 25.501 6.78882
1 21.0337 21.687 11.2932
1 12.0546 24.2471 0.606771
1 21.4929 17.9846 23.457
1 19.3547 11.8914 13.7029
1 3.66112 5.34925 22.6175
1 15.6524 6.76169 16.4378
1 14.0265 30.2007 27.9091
1 5.17543 15.4033 13.9832
1 18.0127 23.59 19.5323
1 28.9407 12.957 20.6396
1 12.5858 18.1209 0.552436
1 10.27 0.326389 15.354
1 12.0296 12.614 16.9708
1 10.5513 1.90172 21.1507
1 3.65932 27.7646 7.81873
1 18.4263 21.1666 22.4749
1 12.3144 28.9829 15.6452
1 26.0083 0.772319 10.9323
1 0.246728 18.153 6.08737
1 29.1264 28.3835 26.3037
1 28.5948 3.04539 18.8654
1 16.7419 23.2786 17.3476
1 13.1579 30.0909 21.1475
1 6.44725 9.18466 6.20841
1 11.4839 2.06404 18.0209
1 10.5954 23.3553 23.0064
1 21.3569 17.6427 7.72557
1 8.82842 9.72417 22.8359
1 10.4068 24.7844 27.9204
1 5.5349 26.1042 24.9008
1 13.6146 26.5014 8.50391
1 14.741 5.89984 30.1169
1 17.1515 28.2581 4.33279