4096
Atoms. Timestep: 20
1 18.203 10.2001 6.83442
1 17.9978 23.224 20.3081
1 10.3377 9.46085 4.06989
1 19.9256 4.54939 23.4172
1 0.57153 23.2724 6.63739
1 11.9824 14.8119 25.698
1 19.8957 28.928 8.43253
1 23.4763 1.68169 9.47863
1 15.6723 1.4715 8.17466
1 22.9429 14.904 1.03707
1 20.1946 11.5907 19.9859
1 26.1331 2.37331 13.3564
1 5.90845 0.619445 18.8079
1 16.7411 1.84372 1.03515
1 22.8566 22.6462 15.8842
1 5.738 28.1996 25.726
1 29.3808 26.8328 16.0017
1 9.68075 14.8084 26.3142
1 4.80442 12.2749 2.26243
1 2.98519 2.15962 16.5338
1 11.9868 24.8773 12.4437
1 10.8646 23.2405 13.1443
1 15.7146 12.6181 15.6273
1 6.01195 18.7477 25.6954
1 10.2547 5.34745 12.9443
1 23.2229 14.2969 15.6944
1 17.97 2.72784 8.50992
1 9.32928 3.48661 16.1481
1 21.2619 12.9772 0.423176
1 6.64207 25.9542 24.5772
1 8.32105 18.4834 15.143
1 0.755075 13.2833 0.200505
1 16.1348 21.9255 12.0357
1 10.1861 12.0609 16.0927
1 4.74728 20.525 9.92534
1 4.71338 25.674 15.2456
1 26.6006 6.80351 11.8803
1 15.3812 24.6698 27.7566
1 6.13912 14.0594 7.16085
1 28.8099 7.8675 18.486
1 19.1163 8.60077 15.5727
1 28.0658 16.2253 4.96646
1 7.98194 14.6884 11.4865
1 16.0588 14.177 15.7547
1 17.6879 2.92529 22.4939
1 14.4584 29.0728 19.6838
1 15.1952 4.89798 22.1453
1 12.3418 9.24385 22.9374
1 9.61578 24.8469 11.8211
1 16.8489 1.47468 13.5227
1 12.452 0.840084 6.01394
1 21.2409 2.5707 15.8647
1 9.17095 17.5854 14.3076
1 16.8097 9.58995 6.87641
1 8.69481 29.4234 21.5512
1 21.8762 5.52367 17.3183
1 2.24204 6.88495 15.5502
1 8.84697 28.583 3.25495
1 3.8068 28.5074 0.308419
1 26.8772 14.2324 23.839
1 0.87375 4.94287 15.5645
1 6.92199 25.7888 6.4484
1 21.6225 14.7829 8.09053
1 7.46687 8.38537 2.62513
1 6.50776 0.393392 10.2721
1 21.8714 24.6794 14.7181
1 15.2177 24.4269 1.23991
1 23.909 18.9811 12.6272
1 0.719956 2.85155 17.5398
1 21.0274 8.96144 10.2391
1 7.86278 22.87 25.1113
1 21.6066 30.078 9.28341
1 29.7789 1.52843 0.164951
1 10.802 29.6246 12.3714
1 26.2601 4.21793 10.4394
1 25.8323 27.1496 1.17311
1 5.15259 29.1381 6.22609
1 29.9545 29.6725 24.1127
1 6.45968 10.7162 27.1801
1 6.23704 29.6029 22.104
1 21.1995 1.74815 3.20324
1 15.3176 13.5225 23.0269
1 18.4765 4.19902 15.8462
1 29.5573 21.3381 29.6179
1 24.6488 6.62916 4.83354
1 1.42842 26.0937 9.36671
1 23.4328 5.86473 1.56734
1 25.181 1.32461 0.626071
1 14.472 4.13791 23.4992
1 1.15356 8.20097 19.5787
1 20.2946 26.9129 14.2085
1 9.00208 9.76762 7.36724
1 23.9653 24.4834 26.4795
1 30.0856 14.2096 11.5053
1 25.7 22.6886 1.91912
1 19.0438 25.664 10.7927
1 23.8204 18.7546 8.26855
1 6.26651 7.11951 1.54052
1 26.8305 3.50872 17.6258
1 6.44971 14.5346 27.1266
1 9.51666 11.8765 11.2517
1 27.8347 24.1251 19.9761
1 18.0945 29.6551 18.893
1 14.246 9.26023 9.83572
1 20.1256 21.085 22.2877
1 29.9434 18.2537 3.74548
1 4.98911 7.15802 10.514
1 7.55513 29.3755 28.3843
1 6.2042 7.05217 15.9158
1 7.30809 27.1611 17.7029
1 12.0981 15.3907 12.1739
1 12.5251 21.6465 29.0553
1 25.2712 29.51 15.6611
1 21.2849 23.9659 3.98534
1 29.301 12.3976 18.0719
1 23.8157 12.4458 11.6697
1 9.7548 26.2515 12.6775
1 0.45757 25.852 3.23932
1 7.15251 0.220777 3.11844
1 20.3275 12.5849 9.70888
1 26.0192 4.37792 19.7519
1 25.2242 21.7279 2.91704
1 14.9497 28.4971 8.99704
1 21.8047 29.0289 16.2675
1 3.7346 12.9105 28.2045
1 15.3725 7.96097 15.9981
1 1.50909 16.9752 4.16687
1 16.9495 18.0189 18.3647
1 16.3364 18.8513 11.2457
1 29.7846 28.5387 10.9299
1 29.1377 17.0694 15.5669
1 11.3545 9.69539 10.3669
1 5.92167 19.3737 11.5761
1 10.6019 8.06391 4.16185
1 1.17781 24.779 9.7455
1 16.3875 2.06004 20.4158
1 17.2693 13.6005 7.84909
1 22.7007 11.9457 19.9718
1 12.1363 17.8716 20.2849
1 27.9589 24.8575 4.74948
1 20.32 0.231646 28.4019
1 9.11746 26.6065 26.7294
1 16.758 29.2289 1.89949
1 13.0607 29.0525 12.7089
1 27.5245 24.108 13.381
1 25.0738 24.9248 18.2944
1 3.10924 10.6658 14.5138
1 25.1314 9.55749 2.5694
1 18.6757 9.53075 8.44205
1 23.7154 25.1783 15.9677
1 28.744 23.4354 24.5747
1 23.6627 24.7272 27.9186
1 18.5293 11.6354 5.10365
1 16.0773 29.5452 29.8264
1 7.11585 22.5693 10.1558
1 24.5361 4.22921 15.9735
1 4.29315 18.0617 10.1354
1 10.9272 5.57451 27.2411
1 12.1646 27.9306 7.71051
1 29.5196 14.4236 26.103
1 22.7294 24.9359 5.81119
1 3.76974 0.254134 10.3424
1 1.78484 20.9181 12.9862
1 15.1729 4.31699 26.0449
1 21.8246 1.95762 11.9226
1 2.76341 6.22585 14.5772
1 20.4141 0.461441 3.16688
1 18.512 16.87 24.1771
1 17.7271 8.41256 15.8
1 15.7999 14.392 22.1196
1 4.18069 23.3722 26.3313
1 11.3232 3.97706 24.0067
1 11.3174 14.3816 20.0204
1 0.822621 7.04002 17.401
1 26.0349 9.96588 9.71359
1 19.0842 15.981 20.7445
1 1.77102 18.7826 5.95903
1 8.62314 29.0629 8.96523
1 23.4914 17.5424 18.4933
1 3.00429 12.1097 0.929168
1 11.4505 5.65911 14.8151
1 17.9201 13.0541 20.9493
1 6.0017 16.3599 23.1192
1 12.1803 5.17917 5.20201
1 1.54427 22.1341 6.37196
1 3.24578 5.40501 11.1711
1 22.0116 3.87865 7.0887
1 3.23278 19.8216 15.7659
1 16.7043 11.1712 15.4545
1 26.6492 2.64873 2.64878
1 15.4903 18.6834 3.52799
1 4.39499 8.91645 27.1397
1 28.6414 10.53 20.8716
1 12.4431 14.4952 7.05582
1 17.3827 24.6513 22.1292
1 26.1608 30.1877 3.587
1 1.91826 18.7998 8.56403
1 0.872861 15.2636 14.8545
1 4.44621 3.59486 3.68273
1 12.6861 25.3589 28.798
1 28.7097 28.1921 22.2881
1 28.8453 0.607716 9.25735
1 16.5594 21.8058 2.36858
1 15.6395 5.2007 7.27367
1 2.33368 20.3592 29.3949
1 14.7969 5.7556 16.3836
1 21.3814 23.6704 26.2488
1 27.3842 16.4933 29.4944
1 25.085 22.4864 22.0974
1 6.37028 7.37363 26.9035
1 20.397 5.46033 8.70865
1 12.8142 5.83733 0.472653
1 19.603 22.9532 12.2043
1 14.675 7.10347 12.3543
1 5.19821 20.5906 13.8912
1 9.69072 10.162 15.1825
1 26.3426 20.4699 25.038
1 6.87639 1.29268 18.1404
1 4.16774 7.49906 29.9631
1 10.6192 10.8121 30.0313
1 23.1243 14.3912 3.28904
1 30.2375 11.0825 16.5605
1 22.8207 4.51591 17.9403
1 6.06785 19.009 0.21138
1 23.8442 15.7631 3.13765
1 27.6754 14.6898 19.2628
1 18.6017 13.6085 7.10799
1 23.4746 4.68237 26.9475
1 4.72379 12.4158 29.4159
1 24.0895 25.8731 28.5784
1 7.90127 3.45444 22.0319
1 12.8936 13.9521 9.53718
1 12.5034 19.9456 13.3839
1 1.11586 9.09114 8.59937
1 5.77866 28.9669 12.7895
1 28.865 21.0599 17.0699
1 28.9743 1.75056 8.41211
1 5.29148 10.5222 12.4056
1 20.216 8.92835 3.91223
1 28.7267 19.0222 29.1044
1 15.8057 2.26298 24.6857
1 19.4854 11.0049 24.4403
1 26.6249 10.0473 4.51221
1 15.5017 23.4691 28.6207
1 17.2627 15.5814 3.21909
1 10.1984 16.9631 3.14447
1 7.68323 18.1419 16.3911
1 13.2022 23.1715 1.36478
1 27.4939 25.9395 24.4136
1 21.4414 24.1606 16.9818
1 29.1865 19.0519 2.81066
1 9.28555 5.89147 16.6234
1 15.5502 16.6579 2.15037
1 12.7742 7.01877 30.0485
1 5.99981 10.4004 8.26184
1 27.9437 25.6342 19.2957
1 21.2231 1.22441 30.2657
1 5.24546 7.83476 29.0521
1 27.9095 29.3632 15.3763
1 25.3504 4.86942 13.284
1 14.7635 12.4308 25.8993
1 10.7052 30.3898 3.91964
1 21.1604 17.7173 28.2928
1 27.9714 15.4942 27.4522
1 7.36502 11.8447 11.1368
1 11.179 20.1363 16.8082
1 11.5938 2.94403 30.0185
1 8.11113 6.22339 0.185024
1 28.131 2.81444 8.94799
1 30.2699 25.3044 5.66978
1 6.02824 3.08523 11.265
1 14.0875 8.46513 6.18787
1 19.074 9.76771 22.1523
1 0.330413 15.1644 25.663
1 29.205 22.0397 22.7615
1 9.38432 12.0343 4.34582
1 25.4861 2.37641 4.91859
1 6.32725 29.2285 6.80244
1 4.42284 18.1948 19.528
1 7.63928 3.62492 17.8575
1 14.8864 15.665 10.1929
1 29.0586 26.3041 23.7503
1 12.8681 7.26293 2.61005
1 23.8786 23.492 9.08105
1 26.8132 4.90299 13.7225
1 11.1982 28.8322 24.6585
1 19.7198 26.2023 26.1419
1 25.6824 20.0587 2.65299
1 17.0936 27.5322 8.76189
1 17.3308 11.1522 2.99176
1 13.1754 12.5572 7.29842
1 18.8994 21.9047 12.7554
1 0.283175 17.3713 26.3353
1 18.3943 17.4526 13.7322
1 24.1486 11.4175 24.2974
1 1.70748 14.2179 14.6767
1 13.518 11.677 21.9167
1 10.2184 24.7463 3.69712
1 15.1649 21.4875 17.8063
1 22.5173 20.5446 10.6302
1 12.3433 16.5135 15.3744
1 29.5638 10.1301 17.425
1 26.0433 17.0759 29.6678
1 5.0261 19.0537 14.1191
1 6.93731 20.6436 8.95193
1 25.9089 25.7716 6.6155
1 6.67144 26.05 23.0845
1 27.0825 23.9978 30.0657
1 6.89588 22.9133 21.3681
1 18.7552 29.1111 17.8432
1 20.6004 17.3426 13.404
1 25.9685 3.36645 6.02718
1 17.7692 5.17362 22.1465
1 27.253 18.84 13.6413
1 25.4203 7.03527 13.6243
1 6.27573 1.22912 25.571
1 16.6882 6.88197 22.6443
1 7.34367 7.90708 20.6088
1 22.2612 21.7788 19.6682
1 22.4724 14.9187 24.9693
1 22.3702 16.9397 15.4191
1 24.4356 5.31526 16.9397
1 2.09497 16.6592 25.2372
1 7.75725 1.52718 15.8564
1 12.8472 22.3581 21.8988
1 14.6012 21.1603 14.0804
1 5.16728 23.6985 16.7117
1 7.26602 17.897 27.786
1 7.14042 10.6412 0.463728
1 9.93266 7.8666 19.7475
1 19.1511 24.3352 13.9403
1 21.9381 30.1255 21.5045
1 14.0357 5.80338 21.5644
1 26.538 20.0111 27.1371
1 13.8397 0.197976 5.41598
1 4.25343 2.25564 3.32852
1 17.7624 0.294221 2.21178
1 21.0049 12.5926 25.7785
1 21.1961 13.8019 4.46159
1 30.2521 22.478 3.21935
1 2.33131 6.71297 21.65
1 17.2741 21.1589 28.8168
1 25.0289 23.4569 18.4737
1 27.7204 5.14397 12.629
1 7.10281 28.0895 16.492
1 0.416152 9.61509 13.5954
1 28.9033 14.8771 23.1509
1 11.8362 20.0287 20.922
1 26.8327 8.69871 8.14298
1 3.06773 17.1829 10.6052
1 14.2066 7.72706 9.42682
1 14.2121 23.4137 29.4306
1 5.3168 14.6806 18.4666
1 19.7399 8.01808 23.2063
1 14.2166 3.44762 5.41509
1 7.05811 5.8523 15.6091
1 1.19343 30.3595 16.4476
1 19.5266 22.471 25.3633
1 9.35746 28.1887 0.814483
1 16.2377 4.08897 4.29527
1 4.49496 13.5588 17.7793
1 26.6057 26.3712 29.1485
1 19.475 27.9546 16.2312
1 22.9582 29.3874 0.926257
1 10.7523 13.1492 16.8304
1 10.5316 22.0843 27.4724
1 8.10591 22.8547 3.05412
1 21.7017 0.222684 7.94672
1 10.4415 27.1032 16.0808
1 11.1016 29.3552 1.02805
1 6.50004 4.62846 16.1532
1 22.8001 23.3696 1.61417
1 8.51122 9.54889 17.708
1 3.21434 9.72041 22.3066
1 5.3622 18.9052 8.14922
1 8.84591 2.9416 5.17799
1 20.6588 16.8295 14.6701
1 23.0538 22.8824 23.997
1 23.3071 8.63123 5.76501
1 12.1348 18.7755 27.3708
1 22.463 2.32693 16.227
1 8.5462 7.77826 23.7777
1 5.18922 5.3715 30.2304
1 29.8123 25.0368 26.9279
1 23.3164 28.4342 9.2829
1 9.09052 5.99364 27.0077
1 26.9537 5.60183 2.63854
1 7.35204 1.78218 24.7868
1 6.64383 8.55701 9.99891
1 12.347 26.3481 17.1321
1 19.4259 19.478 19.1111
1 2.16624 13.8704 15.8365
1 22.747 3.08376 18.4794
1 21.618 25.7208 28.046
1 12.053 9.17639 11.4971
1 8.23511 22.8968 4.34892
1 22.4553 18.7149 27.3305
1 26.6426 28.0286 11.3223
1 17.7365 24.4293 2.34605
1 18.4751 18.1176 21.7441
1 8.15253 4.13593 24.0858
1 15.3075 4.99095 4.78205
1 19.9114 23.8424 27.8658
1 2.50077 7.56618 10.6224
1 0.347104 16.2046 4.29398
1 5.13451 5.62376 28.7444
1 28.5804 3.49383 19.4936
1 1.66835 2.49146 16.3786
1 23.5179 8.23058 12.4641
1 6.70822 14.323 16.3592
1 5.98176 23.0614 1.25936
1 3.32426 14.4881 0.396006
1 24.9343 18.7173 22.7279
1 12.244 2.49892 1.97641
1 23.8333 12.993 10.3047
1 24.8496 26.3793 23.4155
1 6.56139 4.89425 28.3395
1 7.50661 29.8212 24.2202
1 6.42362 6.26785 23.0334
1 28.3614 12.8699 29.1324
1 7.59965 23.9888 4.88672
1 1.7681 0.6803 28.6332
1 15.0397 26.8121 5.90276
1 28.7129 4.99274 25.1287
1 21.7563 20.3458 11.89
1 24.7958 25.4179 7.37235
1 16.605 12.3741 0.346986
1 11.2898 23.045 20.1443
1 18.8117 29.2629 15.1969
1 10.8879 29.1396 9.07369
1 12.264 22.1 1.43957
1 19.0735 14.6367 26.626
1 22.6898 22.8739 29.1599
1 27.8678 11.7762 3.42234
1 16.7543 25.0904 9.54772
1 10.5453 4.22664 26.5772
1 11.5526 16.1481 10.9185
1 9.04162 11.9879 18.4431
1 3.4087 17.2855 20.2728
1 4.52777 28.8953 18.9789
1 2.59163 16.2016 9.81895
1 25.1914 8.34593 12.9612
1 2.98926 8.8862 2.49056
1 12.9206 27.1194 10.0164
1 8.59785 17.1324 28.3423
1 20.1661 14.2432 22.0279
1 27.213 14.112 18.041
1 2.83075 3.47144 5.78896
1 6.18998 19.2995 4.96264
1 21.7238 21.6095 29.064
1 14.2504 29.6261 21.0773
1 25.445 4.32839 23.6424
1 14.77 9.75219 24.0187
1 13.9387 3.63804 6.89797
1 4.32654 22.7223 9.32647
1 8.76219 14.638 12.6004
1 14.6523 27.2005 1.56359
1 14.7787 6.52526 1.34651
1 17.5776 27.6757 24.9713
1 8.15921 0.709386 21.6313
1 6.69039 0.979594 28.2494
1 11.061 6.81372 20.2911
1 28.2174 14.2846 24.056
1 18.7695 2.25346 5.52868
1 17.2599 5.37659 28.7506
1 0.839283 14.6641 9.06803
1 21.6779 28.203 25.6335
1 23.3088 30.29 5.60025
1 15.8678 25.1359 14.715
1 4.12342 29.3701 3.96986
1 3.39361 24.1871 2.34264
1 19.9509 24.7228 20.0165
1 16.9519 11.3085 27.8014
1 8.66159 16.5325 22.7453
1 11.4402 17.7175 5.68528
1 15.9001 10.5219 11.0544
1 7.82783 20.3552 11.2662
1 28.3849 8.77406 15.6734
1 26.7598 10.9709 15.1929
1 11.6744 28.6218 12.3742
1 11.676 9.66189 23.8801
1 22.799 1.76929 17.2987
1 29.3921 13.2145 28.1763
1 15.3094 24.3767 20.2316
1 7.97327 25.3771 19.0879
1 5.20236 17.3629 29.0924
1 9.42562 16.6386 19.9743
1 28.1668 14.8343 12.9505
1 11.499 11.6319 19.3611
1 25.2055 10.7649 12.7358
1 1.59501 13.6127 20.2193
1 27.1189 27.1207 0.238595
1 12.2923 23.6969 10.0145
1 11.2896 14.9062 21.4538
1 16.186 2.92233 10.8129
1 5.47707 1.52972 7.63003
1 10.7298 7.60262 2.74768
1 24.9128 27.8875 8.37314
1 17.7106 19.0496 16.171
1 13.4853 6.2879 4.90271
1 16.8325 12.5239 18.1334
1 22.6954 7.52254 13.3594
1 24.1598 28.4843 21.6659
1 21.1903 5.15155 26.0399
1 21.8837 20.2528 9.25667
1 14.1992 16.5341 6.20767
1 24.3988 6.89421 1.85657
1 28.3475 2.3055 12.5594
1 2.63514 13.4763 3.14617
1 27.2368 0.629143 23.5089
1 0.522649 10.2909 1.59242
1 11.6066 2.29291 12.2808
1 14.3522 23.8366 3.432
1 25.8016 30.1187 23.844
1 19.644 5.62962 0.482469
1 16.4287 13.4057 2.53021
1 16.0302 22.8295 15.4844
1 5.84028 23.8699 18.8966
1 1.69644 25.4378 15.0314
1 2.45046 5.79295 20.7104
1 3.88248 28.0319 4.76489
1 14.5869 13.8734 11.8678
1 24.0614 22.7177 20.995
1 5.93337 26.4137 3.64803
1 17.8897 18.3288 17.4771
1 8.22572 3.11389 20.4299
1 5.93764 4.26952 19.8872
1 24.0859 13.5732 29.4579
1 24.3428 29.3792 6.53144
1 21.9672 1.95771 22.4402
1 19.9878 8.70599 25.5343
1 19.1139 29.4041 28.7102
1 20.4448 27.545 19.6119
1 11.0922 30.1187 17.4239
1 30.1401 8.57481 27.6025
1 22.0746 19.3028 22.0465
1 7.6061 18.0279 12.3256
1 24.9238 20.8997 25.5118
1 25.403 25.3434 22.3766
1 24.9297 12.8929 1.29651
1 3.57233 27.7963 24.1423
1 1.97562 14.4201 21.4845
1 5.9734 11.831 12.9457
1 27.4122 10.5941 6.49517
1 19.4405 1.24225 22.432
1 15.0255 2.29837 5.64881
1 12.9388 18.2924 7.44972
1 24.8904 20.9758 12.2346
1 15.6618 30.1122 21.6603
1 27.0371 8.5424 15.0349
1 1.86244 19.3089 25.8359
1 13.4043 19.2154 25.3866
1 23.8553 23.3266 4.20553
1 16.0417 22.2364 24.2038
1 26.9443 14.5311 27.3431
1 22.7025 26.3378 13.0028
1 10.2862 22.5405 5.24224
1 0.576202 6.51728 4.43062
1 24.247 20.8333 0.333488
1 19.5432 3.42653 30.0746
1 27.15 17.0303 18.3708
1 5.84508 18.0839 5.27937
1 3.27607 24.3404 21.8961
1 3.59243 22.9471 8.00225
1 9.13368 11.7595 2.96864
1 29.4974 10.3224 29.2542
1 4.75921 11.0883 17.0978
1 2.43145 2.14093 28.2265
1 27.1743 25.6911 26.9463
1 20.616 13.9072 5.63327
1 3.14509 27.0327 4.50022
1 9.80515 26.7296 9.20132
1 3.37374 24.796 18.19
1 28.0698 11.2239 29.3921
1 14.7328 14.209 29.8331
1 10.9162 21.9167 10.7735
1 13.659 26.8556 16.9462
1 8.41552 27.5245 4.33133
1 1.00942 3.53453 18.7548
1 30.0608 4.9215 22.9813
1 4.23614 16.9668 26.557
1 13.8398 19.1236 22.4663
1 0.823411 3.6364 29.5658
1 27.7507 23.1422 18.9419
1 24.3299 3.8248 29.2665
1 27.6941 28.957 20.0676
1 9.21341 22.125 22.8278
1 11.647 29.2575 3.45956
1 28.341 18.9012 7.94921
1 20.3877 14.8704 9.01885
1 1.22745 17.6713 23.218
1 29.8988 1.92313 15.0472
1 8.76564 4.01011 2.6798
1 10.3254 18.4221 4.80564
1 14.7124 28.8355 24.2787
1 7.18578 18.2884 26.5264
1 16.5405 2.61423 25.7299
1 10.1691 6.44056 15.545
1 10.5046 15.1841 6.23722
1 18.6372 22.0397 20.1742
1 2.92819 4.64978 3.32057
1 18.5621 0.882247 4.73569
1 13.7029 20.6116 25.1444
1 27.6837 21.7228 19.5822
1 3.78385 9.00273 25.8572
1 22.2333 29.1313 9.78666
1 30.3919 9.94017 28.1543
1 13.5014 19.615 17.8535
1 11.184 6.53697 6.91147
1 23.6083 11.323 27.256
1 27.8529 21.1949 1.93372
1 26.0492 16.0721 25.8735
1 9.99685 29.1519 22.4996
1 18.9185 26.889 4.09446
1 19.1161 16.7983 7.75795
1 14.2305 16.5959 21.8481
1 10.1912 3.24092 23.0777
1 6.91741 20.1459 12.5109
1 25.9022 19.4683 20.6076
1 20.8231 14.3162 0.674766
1 1.30089 24.9664 17.2557
1 24.1064 27.7607 10.1464
1 12.5664 10.6021 24.4726
1 18.4662 2.79813 19.403
1 20.4648 6.68766 9.39451
1 17.4342 28.4663 7.85119
1 10.9913 23.6983 7.06308
1 23.0681 7.2107 18.9227
1 4.33054 20.8125 2.21747
1 15.4017 11.5358 26.41
1 24.7243 28.4214 11.2761
1 9.4498 17.9959 3.56274
1 20.0608 24.5936 16.3242
1 23.7482 10.8944 8.40241
1 23.8139 1.78475 18.3962
1 15.0445 8.7163 5.00109
1 5.47474 3.77532 1.49137
1 26.2279 7.64044 20.777
1 8.42057 10.8435 10.6991
1 1.66212 1.14358 13.6997
1 27.3811 13.7466 28.3976
1 17.2107 25.1986 14.759
1 1.23241 6.19799 16.1369
1 18.097 9.04497 6.11346
1 28.9166 20.5183 25.9172
1 19.1596 11.4687 19.0149
1 26.9446 3.766 29.0048
1 12.0312 26.3162 14.0834
1 10.2914 3.41563 5.42721
1 26.6679 26.6696 10.7877
1 16.9296 26.245 8.42233
1 16.7194 7.807 6.96095
1 8.55901 24.6192 9.29635
1 24.4782 24.7363 12.7562
1 13.8816 10.3782 8.66512
1 16.9979 6.94059 24.2547
1 10.0551 1.16767 25.7014
1 17.218 0.879954 6.75269
1 15.0708 9.28828 8.26811
1 6.45149 9.93771 10.581
1 3.31223 27.5106 28.4158
1 21.1296 29.1224 12.6491
1 23.8008 25.7825 13.401
1 14.8252 11.8345 3.77122
1 7.3014 25.1165 1.40662
1 10.9324 20.156 29.9162
1 11.1923 4.52505 25.2844
1 14.3419 25.7342 15.1463
1 0.73451 8.34801 12.8939
1 4.73699 7.75941 13.6397
1 24.5412 26.1718 29.8685
1 13.1718 20.7155 5.95797
1 5.62484 9.15693 24.0783
1 1.8488 22.3252 12.8636
1 4.54291 13.6371 10.523
1 18.7978 10.5 28.835
1 26.1801 13.8721 24.9523
1 28.7631 11.5209 20.2195
1 25.9364 27.7409 28.2445
1 5.8575 5.25247 20.923
1 27.8421 20.5453 4.60689
1 0.534943 26.3436 4.73644
1 21.2753 9.57245 20.2821
1 30.288 9.60539 9.49801
1 18.9909 8.77991 19.541
1 21.9053 18.4975 5.41663
1 7.88651 24.0382 29.7203
1 25.5356 2.98858 28.868
1 16.0919 9.25376 3.38179
1 20.9811 2.80369 0.811051
1 13.9486 4.35484 13.935
1 6.25676 17.6907 7.87892
1 2.47888 15.6433 28.4493
1 21.4442 24.6782 11.9295
1 13.8877 24.2599 15.2479
1 9.51278 27.0994 28.1419
1 2.47074 2.04735 24.7088
1 15.4613 17.0756 21.4147
1 10.0264 4.98942 20.1588
1 9.90165 18.1374 26.0117
1 7.75849 28.8226 6.03028
1 23.7661 6.57552 21.9142
1 29.0592 22.5239 3.94427
1 18.0402 14.1361 21.813
1 10.782 1.79001 23.3229
1 5.40666 2.48841 15.9708
1 12.7234 20.6772 1.30404
1 11.9053 8.0148 5.57974
1 24.5851 27.8556 25.6075
1 15.9031 5.49625 5.83594
1 16.0484 27.6105 16.5483
1 25.5028 28.5459 26.0507
1 21.7159 21.2817 2.56636
1 28.2271 7.57099 1.55159
1 12.5784 8.03081 11.3303
1 17.4405 29.1695 29.2468
1 8.30347 1.87915 14.666
1 22.8096 8.42184 23.9383
1 10.1844 7.97699 9.39918
1 20.4022 28.1845 3.07914
1 27.7554 6.91276 12.3922
1 14.3567 15.0914 24.6812
1 8.65415 5.67357 13.3319
1 19.2753 27.5665 2.90701
1 27.3399 3.9146 21.6537
1 19.389 3.19792 11.6265
1 21.6388 3.57402 9.60538
1 17.7346 26.4739 14.5848
1 15.4341 15.1539 28.5967
1 25.0125 11.3197 22.7688
1 17.3369 18.4577 5.94086
1 28.6801 13.3218 0.575182
1 14.9213 21.1113 30.2868
1 2.42133 19.6058 6.9059
1 15.393 11.7028 11.6496
1 3.12166 8.97862 17.0945
1 28.1681 5.61781 0.561471
1 22.4898 9.12868 20.3078
1 1.04387 12.2229 22.6798
1 9.60162 8.03637 13.519
1 1.34799 8.26156 21.1604
1 2.60574 10.4282 27.4095
1 24.8863 13.6723 24.4185
1 3.14318 15.8077 8.41225
1 11.726 15.3709 17.5691
1 27.202 9.31198 23.9918
1 3.28274 0.568379 7.12125
1 20.2137 22.1877 9.30509
1 1.79268 10.8283 4.0738
1 8.84358 17.6499 12.8027
1 27.8246 7.02615 28.3618
1 1.28859 3.44215 13.9512
1 3.73473 10.0883 12.2379
1 18.624 4.7982 17.0223
1 24.5939 15.7683 24.4712
1 23.4276 6.3924 5.40798
1 24.552 18.9708 11.265
1 24.2404 18.8476 2.16587
1 16.8223 26.3522 21.1086
1 23.7303 2.65208 23.1574
1 2.03334 9.55923 21.31
1 17.0655 8.44314 14.6362
1 16.8198 14.9526 9.0382
1 29.1666 14.5892 16.5829
1 8.32183 22.0337 0.632206
1 7.91394 14.5829 15.3514
1 18.0469 19.9326 19.6003
1 14.6951 3.93126 12.49
1 17.6445 25.7536 7.0675
1 27.3688 2.84425 15.4472
1 27.7619 2.44819 6.36295
1 21.6175 11.8532 17.4429
1 17.1985 10.6203 24.131
1 24.0336 3.93026 21.19
1 2.71816 20.6117 0.619076
1 20.2114 8.66894 20.0902
1 21.9892 13.2698 19.6359
1 22.262 19.8389 5.84287
1 15.3033 26.4899 12.2989
1 24.6924 21.0814 27.6325
1 10.7604 30.1433 10.0825
1 7.71669 13.8504 27.7303
1 22.2717 29.8057 2.1
1 29.4169 4.67886 7.64124
1 22.9822 7.6507 17.4589
1 13.2657 24.7768 26.4309
1 0.806319 21.8455 29.2906
1 4.21813 0.277446 28.2825
1 4.87019 28.3212 20.6446
1 3.70532 0.249568 25.3643
1 22.4772 9.85469 24.0247
1 29.3485 10.0206 5.19368
1 3.44301 20.5767 7.00645
1 15.3243 23.4046 24.7367
1 2.46961 0.898153 2.19131
1 26.6932 4.66358 20.865
1 11.3547 10.9448 10.2701
1 3.84233 7.29151 21.7638
1 29.1201 28.0513 6.70744
1 10.9883 1.35128 2.32994
1 15.1975 18.225 7.70468
1 21.3184 6.18764 12.6282
1 8.6052 25.1901 10.5211
1 22.5808 26.6127 1.13024
1 23.2492 8.9976 0.82159
1 25.364 19.8677 21.7559
1 8.80792 25.1419 17.3571
1 26.4905 6.97689 18.6733
1 0.495456 22.132 22.5341
1 14.3485 23.1072 7.44829
1 20.0331 17.2478 1.66094
1 5.65673 15.5539 5.32469
1 10.1974 16.5989 0.353859
1 18.0112 3.92917 1.26214
1 22.3841 21.0446 21.832
1 8.57565 14.167 3.33972
1 13.4481 9.16139 24.2493
1 29.8778 2.29698 2.44208
1 25.2421 9.07036 24.5669
1 29.9468 12.3562 27.1719
1 2.51901 7.76637 25.5892
1 24.3994 13.3791 6.55495
1 10.8743 21.247 7.58727
1 1.27741 16.1992 26.3195
1 22.1019 3.5991 0.215771
1 26.4996 5.26966 29.1285
1 6.38425 30.1282 23.494
1 17.1962 7.37778 10.9745
1 29.9664 24.9267 19.2466
1 11.1296 17.4851 11.6828
1 26.9332 4.9522 1.41604
1 22.7758 23.4831 5.25834
1 12.8916 15.3257 18.0892
1 29.0569 8.92232 29.8878
1 23.2385 10.5606 26.1569
1 9.32068 25.6476 2.82464
1 6.36192 22.7435 16.9697
1 17.9822 15.8947 18.5846
1 22.5255 19.3125 30.2283
1 9.69011 15.9387 29.3193
1 1.61412 3.95973 5.40788
1 5.85631 2.72795 21.547
1 5.69447 28.7964 14.8613
1 8.62804 6.34797 18.8753
1 11.2064 13.8709 10.3841
1 11.2344 10.2393 4.76689
1 20.2551 1.1648 19.8066
1 1.72284 28.4528 9.53594
1 10.4978 4.29635 6.43523
1 5.67103 15.1796 6.58133
1 17.4284 20.6797 8.14801
1 9.52092 21.8883 10.3446
1 16.209 11.3011 20.2414
1 26.4175 18.3907 9.91808
1 30.1451 1.0189 11.0722
1 15.6477 15.8807 24.9544
1 1.04716 13.008 26.4595
1 9.12314 1.30712 19.4136
1 14.0892 17.9527 11.5341
1 15.7566 4.19297 9.97878
1 25.5665 16.5815 15.4732
1 17.4972 10.4426 10.3008
1 29.2306 10.0965 26.3386
1 11.7556 7.54115 25.4573
1 28.4969 22.0915 29.9436
1 8.67273 1.31365 16.9982
1 26.7508 16.4172 20.7675
1 24.7712 26.932 3.44422
1 5.47802 22.2822 0.209677
1 23.116 6.00388 30.3934
1 4.89208 22.8649 14.6221
1 15.1321 8.45729 7.14284
1 27.2236 18.6442 24.0071
1 24.1674 2.22168 5.85068
1 25.4848 24.0287 2.64618
1 0.778031 24.4697 15.6082
1 2.38879 17.2084 12.0694
1 10.9314 18.0602 0.427846
1 20.6874 1.61684 14.8943
1 16.4154 18.111 9.92281
1 4.01985 13.1089 0.431002
1 0.823542 0.263259 24.848
1 15.4814 16.1994 13.9822
1 28.2473 21.4451 3.54421
1 6.21331 9.07362 7.13826
1 25.4779 28.0452 12.3076
1 3.40108 9.43958 14.581
1 13.8071 21.8175 11.6155
1 13.5474 16.7153 26.2448
1 1.13398 26.9851 21.8673
1 24.2 4.07094 23.688
1 21.4823 14.8835 26.3126
1 15.592 8.4954 14.7066
1 25.5593 12.9645 8.89884
1 30.3878 29.4152 16.5695
1 25.1417 16.0131 4.03984
1 4.34651 3.53546 5.16887
1 20.7073 29.3591 27.7411
1 21.0736 10.7248 27.9546
1 24.3647 18.9371 28.7354
1 26.1372 12.5609 5.16579
1 26.2685 17.1103 6.74388
1 12.7091 17.1682 25.4224
1 24.6293 0.684145 22.8625
1 10.5424 6.86742 29.5384
1 2.79253 17.9911 0.173917
1 11.9659 17.3174 26.7028
1 28.5331 7.95366 19.9011
1 23.7263 16.5212 19.6911
1 3.11613 6.33146 30.1723
1 19.8266 3.92297 17.8008
1 10.1731 8.08529 26.0251
1 12.9766 16.9751 8.16203
1 0.806864 19.6045 21.3648
1 20.2136 16.6166 19.9357
1 23.9544 1.40252 21.2981
1 26.3172 12.1828 20.862
1 25.2594 8.61552 28.6833
1 4.04644 2.35628 14.1946
1 18.9846 24.5284 1.64624
1 24.9078 20.0745 26.7264
1 5.83765 19.0132 23.1225
1 16.1557 29.6728 24.6563
1 25.7491 20.3348 19.3445
1 6.99124 21.8428 7.23914
1 27.2497 3.67792 6.7723
1 2.4536 25.4298 23.9898
1 25.5919 26.7046 13.0131
1 24.7576 22.9432 14.2512
1 1.68313 23.6733 9.01686
1 14.0734 5.84677 14.7917
1 22.591 18.6018 23.52
1 20.2864 19.8096 9.83546
1 7.2018 20.6979 15.1186
1 26.274 21.898 20.1483
1 16.4945 25.6906 4.20189
1 17.6617 29.1836 22.8826
1 19.2323 22.1804 17.0694
1 15.8609 6.69701 26.5376
1 12.1888 9.85659 29.0936
1 26.9851 20.4731 28.7739
1 6.17416 6.19118 10.7313
1 0.433909 2.08939 8.87969
1 10.2478 17.3619 8.93471
1 11.4677 25.7396 28.4012
1 28.9995 3.72263 25.0836
1 26.9651 13.3022 21.5698
1 14.2253 20.5186 1.35879
1 5.17034 12.6168 16.9727
1 11.7817 16.1244 7.74975
1 11.3649 1.57609 25.3515
1 2.61554 26.4469 27.8773
1 27.2916 11.6746 11.3684
1 7.36629 20.4621 1.8117
1 2.88835 0.800948 11.2519
1 0.360623 0.483027 22.3383
1 9.58201 11.479 17.2771
1 19.9319 20.6029 3.89664
1 29.3804 21.6248 7.61546
1 30.2288 8.84306 4.82316
1 3.20949 28.3143 18.752
1 6.22903 3.01877 12.6464
1 11.4506 24.9114 22.9093
1 26.5914 11.7467 22.9998
1 13.042 13.732 13.5552
1 22.9499 19.6262 17.7888
1 12.432 29.3156 23.9752
1 12.965 17.4743 1.87951
1 20.3627 10.257 10.1924
1 10.1446 8.9618 15.7586
1 9.22647 28.2219 24.4835
1 11.1872 8.06367 11.9289
1 23.6951 5.79219 9.19958
1 14.5654 0.954702 7.35866
1 10.0566 4.96933 0.836338
1 9.72673 16.2698 14.4116
1 19.9456 4.84394 26.2063
1 15.3953 23.083 19.7798
1 18.4141 26.1371 26.8493
1 28.3688 14.63 25.4201
1 21.8188 23.3809 20.1803
1 6.8583 10.6205 25.717
1 1.34417 28.5119 3.11856
1 29.7094 18.7136 1.47514
1 11.177 4.42956 8.75698
1 8.17894 11.1097 19.3834
1 18.8175 7.58123 28.393
1 0.642706 1.43425 19.0197
1 1.08815 20.1295 13.6765
1 18.5736 28.0342 10.28
1 20.1217 28.7845 22.4091
1 3.34742 22.8148 23.9019
1 7.09154 26.1302 2.70672
1 21.8564 5.61457 23.2077
1 22.4351 13.0889 23.4797
1 24.6158 3.07084 1.66092
1 28.2924 3.12457 0.944413
1 26.1573 10.3755 26.1272
1 25.2 0.327033 18.3036
1 15.9054 12.4529 29.3071
1 7.54385 9.06656 3.84268
1 29.3788 10.1586 23.6485
1 15.6106 18.6498 20.2555
1 11.9504 1.3376 26.6308
1 8.78947 2.99679 17.1609
1 14.9914 23.3706 6.22579
1 20.0555 19.4406 6.26916
1 11.4424 18.2982 22.3429
1 28.5917 14.5993 0.346936
1 13.8868 19.0312 9.69112
1 28.6097 7.02269 5.52896
1 25.8509 28.8516 8.32839
1 22.0551 6.67622 4.95694
1 26.4429 28.476 27.1367
1 27.07 19.3266 29.5522
1 4.09122 26.0546 18.3024
1 7.64987 5.29108 1.12149
1 10.7562 16.0157 21.9071
1 29.851 4.90392 2.66488
1 5.40334 0.912575 11.1459
1 3.48534 21.824 2.76425
1 7.0062 6.0313 2.215
1 12.7758 9.40095 2.09736
1 27.4383 14.8925 29.6253
1 11.7872 12.3272 28.0206
1 4.94177 10.3885 27.3173
1 26.4781 0.768588 19.1552
1 10.2045 0.729736 29.4395
1 1.65034 6.46009 5.54863
1 20.5481 20.0655 24.7233
1 17.2119 27.4603 17.7143
1 15.7329 29.9381 17.0267
1 29.8907 24.1132 29.6863
1 28.1408 3.08944 20.7952
1 19.0115 25.0985 17.3152
1 14.2049 23.1549 11.1822
1 29.7886 22.8204 7.53576
1 24.6582 27.6538 30.3516
1 4.43769 16.5609 8.56884
1 25.5283 30.3258 25.1843
1 6.00231 23.3859 14.1464
1 27.6398 20.091 12.89
1 8.20647 11.7483 0.500777
1 4.90041 2.57293 9.48138
1 8.66765 23.621 27.1325
1 4.53451 16.6227 30.1566
1 16.5927 9.16333 29.9991
1 22.5884 1.19624 21.396
1 13.7515 5.24213 2.90933
1 4.29735 2.53991 26.6848
1 11.0765 30.2927 7.88087
1 13.1077 25.4008 19.5938
1 2.85525 20.3778 20.7859
1 15.1656 28.0477 22.9919
1 14.7249 1.11109 6.10395
1 4.99911 19.359 19.9414
1 16.2524 0.40728 8.85208
1 8.51114 3.02231 0.751783
1 15.2963 8.53645 12.4297
1 24.7671 0.18939 20.6121
1 23.9225 27.9953 4.19284
1 20.9975 16.8518 11.8947
1 21.7458 3.33472 12.325
1 2.90616 25.4777 26.5953
1 4.29691 26.105 25.5647
1 6.16287 22.6821 2.68915
1 28.3978 20.8098 22.6901
1 23.8761 2.36814 14.1687
1 13.9148 12.5819 4.77731
1 2.9991 21.6726 22.889
1 14.3081 19.289 4.15909
1 13.5195 16.8365 22.8841
1 30.2367 7.09308 24.7035
1 14.5166 6.95616 20.6475
1 30.1517 22.8495 14.3746
1 17.7825 12.8706 24.2116
1 16.6773 22.6165 22.6433
1 10.0728 19.3896 26.762
1 18.4174 22.2827 23.1218
1 26.3002 17.3905 0.86706
1 27.3906 2.36896 29.9343
1 25.9152 24.0861 29.2699
1 28.3466 14.2738 2.90738
1 19.2731 18.9471 24.5193
1 23.7758 8.65747 19.3451
1 14.5849 29.2519 6.21198
1 1.2928 3.70143 25.9921
1 0.456441 9.97831 23.9645
1 1.7033 7.05408 1.64879
1 27.2028 6.28507 14.7411
1 24.7192 3.82158 7.96668
1 4.55228 26.9868 10.631
1 15.5244 24.7806 9.2187
1 4.11681 15.2346 24.8115
1 12.0025 23.4736 21.1938
1 28.594 5.68333 26.4226
1 11.3219 6.62645 24.3549
1 8.36546 22.0503 28.2302
1 18.1298 7.94612 3.86802
1 15.9855 30.0146 25.8631
1 8.67532 20.4103 4.38826
1 6.84801 20.2075 27.8058
1 26.5476 2.40116 9.20374
1 18.7051 5.22693 5.90441
1 26.6437 8.89764 10.3955
1 21.5436 26.1807 11.9879
1 22.9438 9.75022 18.4363
1 7.7426 5.74736 29.0795
1 18.2507 28.1964 20.8775
1 8.45053 25.1574 29.0772
1 5.87032 10.6625 1.45473
1 9.38817 0.611562 6.13463
1 7.9566 16.1072 6.44382
1 5.356 20.9402 18.2522
1 10.141 9.20666 20.1364
1 19.7283 16.2704 9.06038
1 26.9298 12.1606 2.66045
1 1.86956 4.52718 7.45367
1 19.4217 6.16318 17.0493
1 1.12216 30.3377 18.4844
1 1.71642 16.9771 22.2144
1 4.1313 18.5989 26.9088
1 9.61761 10.1629 3.20918
1 6.87631 7.74326 13.2569
1 3.15262 4.49215 1.92451
1 30.2822 27.2054 2.49287
1 7.95512 22.8919 12.4909
1 25.9351 15.5088 21.3932
1 23.9731 8.46992 25.0153
1 21.3678 28.147 29.7708
1 0.805546 25.3506 6.88374
1 21.7128 22.3643 12.1808
1 11.8749 25.0004 0.901722
1 22.0475 17.2683 23.2579
1 19.4563 12.2231 13.1567
1 3.66875 5.6435 24.4414
1 15.8028 6.76484 16.6102
1 14.1377 30.2955 28.7106
1 5.476 16.1021 13.5957
1 18.3916 24.0789 21.4499
1 28.9782 12.9415 20.7799
1 12.2239 17.3731 0.730173
1 10.5979 0.676625 15.1756
1 12.6837 10.7429 15.7777
1 11.3368 1.69007 21.0981
1 4.53914 27.2956 8.04113
1 18.8603 20.6975 23.0512
1 11.7048 29.0299 15.4655
1 25.4549 0.96436 11.3151
1 30.2985 18.0305 6.31624
1 30.1448 28.778 26.6638
1 29.1188 2.68205 18.5575
1 16.3321 23.2351 18.5974
1 13.1122 0.212379 20.9088
1 5.96769 8.86759 5.84087
1 10.9777 2.21913 16.7405
1 10.0835 23.1194 23.8989
1 20.6303 18.5902 7.2309
1 8.96696 10.0007 23.4102
1 10.7067 24.645 27.9688
1 4.55073 27.3396 25.0772
1 14.0891 26.8996 9.52836
1 15.1188 5.25433 29.3515