4096
Atoms. Timestep: 700
1 14.8384 12.8055 18.1686
1 10.2186 20.0564 17.0005
1 5.95327 4.94696 5.86567
1 20.2598 7.07573 28.2405
1 6.83971 0.383469 1.43487
1 4.96952 13.5764 20.5547
1 10.9003 5.31437 10.4712
1 27.351 5.71989 10.8406
1 22.6935 3.52903 9.40684
1 29.1179 9.2467 5.16028
1 23.6047 8.77464 23.4084
1 6.06227 13.3295 15.1298
1 16.657 24.6158 21.8319
1 21.3816 3.20513 29.2879
1 20.0042 27.1732 17.3598
1 1.01414 3.02592 30.1442
1 26.212 22.8143 18.284
1 8.18667 17.653 0.590672
1 29.7777 16.4933 7.34989
1 6.04167 22.9347 10.331
1 13.0449 28.7694 2.87932
1 12.7497 26.7278 7.44934
1 15.8187 4.37707 14.9146
1 12.1205 20.8813 27.8263
1 6.55496 5.68411 13.815
1 26.487 18.6908 13.0121
1 16.5869 3.36788 12.2076
1 14.0577 9.35137 2.49878
1 24.1833 13.645 28.9531
1 16.2309 20.2832 30.1706
1 12.9766 22.7846 19.5947
1 5.82306 17.344 29.4537
1 17.9861 11.2239 11.5619
1 11.8654 5.3044 16.9388
1 4.084 11.3507 4.53958
1 9.725 17.9224 12.636
1 22.3073 9.55118 6.47573
1 18.7512 2.66578 23.874
1 2.55582 14.6755 27.825
1 24.0694 13.4248 20.2037
1 19.9009 9.52915 26.1472
1 14.8803 13.3703 6.64005
1 13.8138 16.3773 15.1285
1 20.2104 11.2544 28.9268
1 12.6629 3.48065 20.4548
1 5.65691 0.211686 19.9417
1 9.51724 9.36717 21.0002
1 16.3482 8.59891 2.02385
1 9.07811 20.284 0.835316
1 17.9642 3.15694 12.8639
1 8.97836 30.4672 2.91213
1 25.3159 5.3527 5.0938
1 5.23485 20.9503 7.15434
1 18.1287 8.61559 9.24225
1 9.75947 27.9138 22.7153
1 20.8859 7.45175 18.0913
1 3.27729 19.4372 13.3134
1 4.54284 30.4607 29.0931
1 3.78952 27.533 28.7856
1 29.1359 20.9863 24.0747
1 23.3119 2.67041 13.1432
1 1.93954 26.2231 1.11559
1 24.5948 4.20955 7.01606
1 4.91226 9.68445 1.23871
1 16.3802 4.51933 6.97875
1 18.4953 25.6296 11.2952
1 14.5067 16.1478 29.0612
1 16.2998 15.0521 11.7342
1 0.431533 0.310379 24.806
1 22.7689 9.16768 18.9023
1 3.11134 27.3221 19.1603
1 23.774 26.3449 8.74286
1 5.55016 29.481 29.3683
1 8.60557 27.0965 14.4701
1 25.4768 2.79975 4.33201
1 20.0145 27.8778 28.617
1 5.25152 5.47908 17.1188
1 8.45615 19.9535 21.9901
1 2.28007 7.255 26.2534
1 25.4499 26.3329 26.6576
1 21.3054 0.283201 3.69365
1 17.9873 17.3501 24.5278
1 18.6001 7.76721 21.5028
1 1.40703 17.6456 30.2004
1 26.9612 4.28756 7.72829
1 4.02584 23.6391 9.37957
1 21.4008 8.69129 3.74889
1 26.0085 29.8073 5.05841
1 16.9265 8.52994 22.7525
1 18.8835 6.69554 23.8483
1 23.8904 24.0349 5.67683
1 12.7551 12.3133 5.03929
1 23.4911 27.7507 26.2361
1 27.2603 21.454 12.5845
1 28.3874 18.0826 3.5525
1 15.4229 29.1604 6.18254
1 23.5799 26.9617 15.1729
1 7.32595 9.09916 2.14477
1 23.2616 0.0990409 22.5107
1 11.4394 22.4237 29.8033
1 4.07581 1.85335 7.30006
1 3.61609 23.8899 16.5291
1 17.3549 3.68443 18.5561
1 15.3766 30.2817 5.19669
1 25.4589 11.5986 24.5608
1 2.20929 21.1081 3.333
1 9.04288 4.78201 16.6658
1 8.65842 27.8159 19.7426
1 30.4025 1.05011 19.0972
1 13.5669 26.4769 22.8504
1 5.76204 17.2027 0.656276
1 18.3942 15.8965 3.74857
1 22.9252 11.2427 9.62542
1 18.6296 29.0343 4.35954
1 27.0629 13.4793 16.7346
1 19.8699 17.3492 15.8693
1 11.0348 2.77375 11.3345
1 0.732162 28.6835 9.25745
1 6.3905 22.9369 1.94402
1 25.4965 10.6047 11.0236
1 23.1186 5.57253 16.0391
1 26.4414 22.0481 2.97882
1 10.2314 26.7536 5.20291
1 21.9614 1.69582 13.1824
1 23.2327 11.1075 23.8363
1 12.1756 6.47645 14.4368
1 27.7144 19.5337 9.31198
1 18.1088 14.695 10.0272
1 6.81342 17.9352 13.6521
1 27.4787 23.0504 15.0198
1 4.90422 14.4624 22.5876
1 4.39569 13.5918 11.9487
1 6.21288 18.2831 12.3774
1 7.09447 4.44588 30.015
1 0.496426 20.616 15.6129
1 22.8257 3.67346 22.1318
1 13.1944 10.2583 8.18822
1 20.1983 7.67636 21.4376
1 19.1235 18.0971 19.9681
1 29.5413 26.2863 6.47683
1 21.9388 1.6344 3.807
1 4.25135 24.7084 30.4137
1 19.1109 28.8125 28.1331
1 12.7777 8.79054 10.3802
1 19.1623 22.7557 6.05463
1 17.2938 23.6275 23.3741
1 3.95196 9.46192 19.0161
1 28.38 14.268 1.50782
1 21.5257 8.34952 2.40013
1 7.39208 27.2363 11.7835
1 28.8209 0.937511 29.0474
1 29.5363 26.9901 29.1133
1 17.5409 16.2922 8.48113
1 25.1481 5.50047 28.1214
1 1.80263 27.8775 16.5556
1 24.4508 7.25947 14.9614
1 6.9104 17.4155 10.0776
1 15.0058 2.48656 0.682463
1 15.4628 5.69807 27.9822
1 28.5961 20.4604 27.129
1 16.8612 27.0853 1.39366
1 7.69391 24.2511 11.3204
1 1.55853 20.9907 11.8317
1 17.0525 8.9563 27.4089
1 26.7608 9.20156 13.7575
1 26.0645 12.7528 17.0656
1 8.7958 5.58764 9.72576
1 17.756 15.1293 23.0018
1 16.0185 9.90986 17.2136
1 13.2986 9.80223 25.3545
1 29.6529 19.4929 0.43446
1 10.4697 1.19321 22.0735
1 11.3515 18.0808 22.9258
1 21.3903 29.8233 13.2622
1 21.7097 11.7398 9.29149
1 11.1963 19.7723 18.5313
1 6.82855 24.0629 4.01348
1 5.51553 1.49509 5.24462
1 21.0664 15.6185 16.1933
1 30.1513 12.8467 8.38232
1 12.0598 4.61426 14.7274
1 11.9744 4.88938 22.5524
1 11.7679 13.5467 17.9794
1 10.1169 3.22184 1.61718
1 25.2563 21.5706 6.05136
1 28.3379 10.0054 11.9592
1 23.2613 3.6527 6.79725
1 6.17646 23.1959 6.30209
1 19.5018 3.85386 12.4666
1 24.0386 7.12021 4.50521
1 20.5208 16.8045 3.83673
1 4.75349 1.96501 4.16005
1 25.397 16.5606 22.3875
1 19.149 15.7698 5.87367
1 17.9783 22.6317 26.9446
1 26.0235 3.83597 28.0561
1 24.5221 21.9726 10.2528
1 2.66262 13.1943 18.6224
1 13.0242 7.18439 2.43794
1 9.50031 23.0387 5.07466
1 26.1544 29.9558 18.5137
1 24.7006 7.97736 12.8333
1 18.469 22.616 2.85924
1 16.0748 7.52639 16.773
1 2.13856 21.8309 26.8628
1 21.7739 3.0605 18.2145
1 23.8173 28.1469 20.2795
1 30.215 24.9464 3.66689
1 25.1569 17.5677 18.811
1 3.9221 3.71252 21.0148
1 20.6088 5.64872 15.4922
1 17.4672 8.45516 29.8971
1 18.1131 18.3427 12.1891
1 13.2726 6.09092 24.5967
1 8.89919 24.9926 14.0025
1 2.9982 7.92452 14.1922
1 24.6787 18.7384 21.6701
1 9.84373 6.62136 23.8941
1 1.70991 6.91399 1.01909
1 11.9945 17.7806 4.89374
1 1.55383 11.808 14.0232
1 3.53284 10.8909 14.2809
1 20.9087 1.98684 18.7803
1 15.6622 19.944 27.4304
1 16.4029 6.66198 10.2564
1 25.2685 12.9786 23.9373
1 14.2136 19.6519 4.4321
1 2.92884 3.57559 3.3039
1 13.2099 15.1799 26.9966
1 21.6595 2.5998 0.452579
1 3.22687 26.5696 22.3984
1 6.36842 13.7423 7.34556
1 12.5246 15.0442 19.5948
1 5.23848 6.08548 6.55101
1 29.9474 24.1846 18.4199
1 22.8264 19.0658 12.6981
1 0.155187 1.01661 4.54396
1 30.0735 5.1642 19.1297
1 23.9491 11.1927 29.4008
1 25.1158 19.5399 2.97833
1 2.5195 29.1127 25.4141
1 21.9053 5.2108 26.0628
1 27.731 3.45761 10.9862
1 7.56148 24.9367 26.3201
1 22.0562 13.1348 8.87861
1 9.11289 15.6488 13.5727
1 2.95638 13.8918 11.9526
1 12.8734 29.7983 6.18261
1 25.4274 24.1015 27.2425
1 19.0272 16.531 12.0378
1 3.26013 13.7431 29.9714
1 7.93686 6.15869 11.0589
1 15.7122 11.6166 3.45009
1 19.3213 11.5708 29.7827
1 6.33025 12.9197 12.9115
1 23.422 29.2204 23.5905
1 24.424 5.62273 6.3515
1 6.49368 3.69905 21.6466
1 1.7796 0.377196 14.1316
1 28.1208 26.2561 11.9258
1 13.1424 11.2477 5.8598
1 10.7831 0.568099 1.79087
1 17.7403 12.2749 9.43195
1 30.0649 12.2759 22.9404
1 29.0867 11.3767 11.7
1 10.6659 27.64 14.9566
1 8.15316 24.3923 17.3548
1 8.73511 11.2211 1.37384
1 27.7165 9.04707 4.865
1 27.7085 28.1546 8.82469
1 5.71208 10.8914 15.7022
1 18.61 6.33775 9.23819
1 17.1356 6.8808 26.4296
1 8.33697 16.7813 3.65603
1 1.77407 21.64 18.8803
1 7.93341 12.6269 1.59786
1 28.5638 1.42405 9.1161
1 3.49996 2.05476 19.1399
1 5.78185 21.8583 2.76396
1 7.4739 10.9616 21.7948
1 13.6731 16.7911 18.6724
1 29.7663 26.6688 19.9775
1 15.1211 15.81 20.7507
1 21.7144 25.3114 5.49388
1 28.4417 0.0934769 12.0526
1 11.9036 26.4388 1.93191
1 11.7996 22.663 21.7687
1 0.162572 14.2785 3.09604
1 17.7195 0.869383 7.90612
1 11.3766 8.26054 8.55025
1 12.3163 9.41321 9.28069
1 13.756 28.6045 15.2381
1 1.62899 19.1133 29.8837
1 15.3972 15.0559 18.3863
1 27.9113 20.4909 24.1866
1 3.79207 17.0795 17.0046
1 16.6418 4.96052 1.84115
1 11.0412 19.3591 23.3582
1 19.8013 20.6662 9.61691
1 21.0993 24.393 6.04365
1 23.067 8.10685 21.4484
1 25.2065 7.87452 20.9801
1 29.7334 11.879 28.2293
1 8.0558 14.4271 15.8679
1 11.0178 22.9778 2.46375
1 27.767 8.12865 8.59659
1 13.5492 21.0323 27.7254
1 1.90788 20.4453 27.3836
1 13.4156 0.497584 18.3481
1 20.3455 6.09016 11.6965
1 25.563 8.24759 18.9835
1 23.3371 29.8361 4.77255
1 30.1415 3.6999 16.0086
1 24.0139 19.6916 9.57747
1 23.2745 1.20547 10.2917
1 7.89768 5.61652 25.2921
1 16.7707 6.1617 27.4267
1 11.5095 7.79873 25.1042
1 19.1899 29.3969 24.2162
1 24.2411 12.1354 27.004
1 16.6518 12.9771 16.1787
1 18.3924 6.81476 14.702
1 6.89387 8.32518 16.5761
1 15.8365 0.226545 15.5919
1 13.1025 18.8313 19.5031
1 7.51693 25.492 8.88071
1 5.41331 26.3699 11.6079
1 16.131 17.7144 25.2494
1 3.05802 12.371 29.02
1 2.88057 2.9659 18.2953
1 23.0211 23.983 14.3928
1 25.2859 4.22156 18.7579
1 10.9126 5.74111 18.0409
1 25.9067 12.8779 7.55177
1 17.1225 0.253855 27.54
1 30.0475 5.96361 1.49239
1 18.4751 4.21481 3.46842
1 18.1452 10.0205 27.8829
1 22.3726 9.84959 3.87301
1 29.3968 17.0961 3.85964
1 29.2055 3.24558 29.0408
1 18.5314 20.1446 23.737
1 21.3034 15.8189 1.00174
1 27.8624 7.95532 19.571
1 2.48216 23.6584 14.5708
1 30.4521 1.39523 11.7997
1 1.15326 16.7461 20.938
1 12.4114 16.6432 15.1247
1 26.0111 15.5747 16.3073
1 2.92334 9.1853 15.9979
1 10.5283 10.0397 11.0407
1 11.9861 30.0223 24.3217
1 5.19804 16.8934 21.8669
1 12.0956 5.20408 27.4598
1 14.9987 30.2677 3.8715
1 5.27575 5.53456 19.9913
1 24.2897 3.6729 22.6536
1 9.03119 21.9652 25.7716
1 3.45235 29.1408 6.57338
1 15.4467 3.15676 14.3793
1 7.31357 9.61377 11.4902
1 24.0973 24.0543 27.2632
1 9.98652 24.5646 11.8082
1 22.0382 4.80369 0.632365
1 9.2369 2.62021 10.4128
1 7.12826 17.1227 2.88856
1 7.06557 1.19803 30.1864
1 23.664 6.78644 6.94494
1 13.7694 27.2573 18.5788
1 9.73303 27.7337 3.10562
1 29.3702 2.4791 15.6733
1 22.6416 21.2524 30.2268
1 7.04246 2.91782 7.08301
1 28.1099 6.73416 23.3161
1 9.34315 13.8588 3.30743
1 3.6779 28.404 27.5921
1 24.1493 17.2467 21.9273
1 24.6792 19.4188 27.6405
1 20.6322 7.69045 9.2171
1 10.9832 13.4877 0.400157
1 1.26053 5.97515 14.3882
1 5.92633 13.2173 27.9166
1 9.70028 8.03275 6.19741
1 26.6592 26.782 24.463
1 19.9921 0.131676 12.9823
1 12.0533 6.71177 16.0541
1 26.7516 0.879765 27.894
1 6.02245 3.47608 6.62944
1 7.05762 10.874 15.0708
1 14.9941 0.629016 16.5525
1 17.4162 20.4576 14.7126
1 1.72932 13.8338 22.3883
1 23.2372 5.25428 20.0888
1 22.9823 26.9464 23.9013
1 12.2808 11.439 10.8702
1 14.7787 26.0841 1.72091
1 24.5453 21.3319 24.0816
1 28.766 1.2531 17.0184
1 20.7696 24.4468 29.5578
1 21.7167 16.2759 3.98127
1 6.45435 4.13227 24.0223
1 19.5832 20.074 10.998
1 13.3622 20.1882 25.0044
1 30.3085 13.9311 11.1967
1 6.41144 13.1054 3.40008
1 7.52183 12.3156 25.0587
1 10.0191 7.61156 22.8411
1 1.46244 8.74234 18.8018
1 20.814 3.04331 20.815
1 8.99673 15.2923 16.3505
1 29.3013 22.485 24.2553
1 12.8066 9.2508 3.85548
1 0.502938 17.1435 15.8902
1 24.0411 28.5447 4.7939
1 11.8214 13.8885 2.75033
1 21.0736 30.1641 20.8918
1 10.6466 13.112 23.5256
1 9.11352 29.9146 23.5368
1 14.1478 4.55851 2.18681
1 3.70352 7.88252 4.75203
1 12.1341 23.1543 4.39091
1 28.4697 8.69095 0.743519
1 1.41652 1.80271 8.03314
1 28.796 4.39415 26.954
1 22.5453 15.8036 9.26992
1 23.816 26.3737 5.68304
1 20.6658 11.6318 3.77211
1 14.845 25.2095 16.0699
1 15.7689 25.6554 12.1507
1 14.5206 2.41145 4.26996
1 11.522 20.407 26.615
1 23.0067 15.7309 28.5592
1 24.3624 23.1242 29.9433
1 26.7998 4.53798 2.90348
1 19.6121 24.0562 5.86325
1 15.5262 30.2921 24.3053
1 14.5602 11.3839 18.0285
1 11.5619 11.1998 20.9715
1 2.74697 19.8522 24.1025
1 0.828612 26.0302 25.8363
1 28.3997 20.7293 12.483
1 15.6274 7.93022 19.5128
1 0.932002 11.9478 2.56412
1 8.99007 26.3985 5.59855
1 6.52778 10.3119 28.283
1 20.5842 24.1183 9.37562
1 25.9058 19.0702 21.5714
1 29.4357 25.605 13.976
1 26.5361 19.5193 3.03409
1 19.3882 23.9366 29.5723
1 10.0259 20.7071 24.0534
1 1.98627 26.5763 27.7672
1 10.8682 5.65132 24.5315
1 15.5664 8.72931 3.33226
1 4.20828 23.8244 11.9017
1 4.04319 13.2157 5.68402
1 14.5021 23.9211 1.85974
1 13.9478 7.68828 7.67448
1 20.8018 24.2984 23.9573
1 10.4903 30.0544 22.7924
1 4.44578 28.3638 24.4847
1 13.6003 4.92115 18.8138
1 3.29081 12.5089 22.3936
1 26.8778 11.2107 24.353
1 10.672 11.1353 28.3127
1 1.04146 10.7726 11.4945
1 21.0159 6.94035 0.46004
1 3.6894 10.2216 7.88708
1 12.6403 27.6433 13.4721
1 3.80642 3.11396 2.00826
1 4.24332 19.6742 2.64222
1 20.8348 23.7122 20.9311
1 15.9032 8.34944 5.73995
1 12.6647 14.3603 12.6632
1 9.32671 17.8913 5.8219
1 17.8221 21.1597 18.6842
1 11.1 24.4701 20.1906
1 24.5536 0.639412 13.932
1 21.7079 18.8008 9.46086
1 16.4083 2.16957 13.9832
1 4.8627 14.115 26.0455
1 15.2736 5.21154 15.7351
1 2.98824 22.1709 3.59938
1 15.8289 23.1489 7.87897
1 14.8552 24.1667 16.7614
1 11.3522 16.2957 28.5157
1 17.611 18.8302 15.1218
1 4.61414 17.7262 14.6318
1 15.6434 3.22189 19.0986
1 20.8067 11.7068 16.7798
1 5.20629 14.3539 14.2206
1 29.7485 29.1701 0.496543
1 3.77604 21.4871 11.6838
1 10.0694 13.6558 19.9586
1 16.3292 5.68272 8.27675
1 10.4975 29.7684 29.2432
1 13.1949 7.75488 3.70256
1 20.6295 29.3447 10.2173
1 22.1203 10.9982 13.8383
1 9.50974 2.54594 28.1729
1 16.851 11 1.60975
1 15.2906 7.31594 24.9394
1 18.8997 24.2203 17.4782
1 19.5333 4.03878 25.2768
1 22.6185 23.4356 9.59875
1 6.64919 14.9801 10.3721
1 28.6826 8.81444 1.99005
1 9.14541 0.940665 10.5396
1 0.282281 15.6759 21.7466
1 26.3345 7.76963 21.8557
1 1.85999 15.1591 0.446647
1 20.4919 9.07913 13.7565
1 11.6622 17.5635 3.47688
1 27.3346 3.75813 21.8615
1 12.8127 2.48208 22.7664
1 26.2954 10.0812 1.35161
1 16.0839 21.3091 23.9585
1 3.73317 24.5974 21.2771
1 29.466 24.0464 21.1147
1 30.1451 11.8597 15.858
1 3.15081 25.1904 3.23176
1 15.4834 11.6431 28.0056
1 23.5155 17.0949 16.0356
1 1.77244 3.04234 0.756749
1 3.41534 15.6272 5.7362
1 12.0087 26.3969 24.8856
1 9.85331 1.13281 20.9233
1 2.59592 11.2995 4.67816
1 26.5899 9.50128 10.3672
1 19.4703 30.1471 28.1095
1 12.741 20.1399 4.4135
1 19.3437 24.9967 26.3799
1 16.6553 5.37742 20.9116
1 17.1008 26.3705 11.8893
1 2.79027 1.56935 20.9436
1 20.4574 17.0672 24.9151
1 8.90456 17.5482 17.8334
1 24.1851 22.7861 23.9483
1 24.2948 26.4444 23.8537
1 27.215 13.8364 29.4275
1 26.1544 25.284 27.114
1 1.51246 18.2864 15.981
1 30.3072 11.571 11.6252
1 29.2132 6.4624 7.62205
1 19.6574 26.0164 22.9795
1 8.34186 29.1642 5.54863
1 10.2984 20.022 11.4977
1 16.9428 22.9544 5.4988
1 13.4075 29.8284 22.4867
1 23.1154 10.1233 10.6521
1 12.0688 12.8975 28.7333
1 10.6625 12.6489 13.8806
1 21.9602 23.0559 2.79997
1 13.9955 24.2461 24.6726
1 26.7108 22.4864 24.27
1 22.4854 24.9686 13.5889
1 17.9725 22.121 5.96371
1 27.5566 4.49623 4.9241
1 28.3493 11.1005 5.85766
1 21.9011 6.86435 25.9545
1 25.3645 18.8435 18.4286
1 4.0344 26.7391 6.04631
1 26.2438 20.4722 21.4629
1 5.64409 14.5041 6.38007
1 7.38009 7.93596 0.890181
1 29.4466 17.1139 28.1568
1 10.7435 0.47677 10.4482
1 25.1266 29.2808 2.38427
1 26.1471 27.5217 29.9447
1 21.767 14.5882 6.43323
1 30.3146 26.1826 2.99241
1 18.5487 22.3454 11.5487
1 11.8988 15.9826 17.2204
1 23.9098 13.3411 23.7913
1 13.3142 10.4932 2.02685
1 11.477 17.3476 11.4248
1 16.3827 29.3795 14.8755
1 4.33889 17.7735 28.9405
1 28.2396 29.4605 21.5663
1 26.3277 4.33992 15.8616
1 0.203706 14.1938 25.5007
1 9.20399 22.324 21.2686
1 3.47041 4.32104 6.77672
1 21.9237 26.2716 23.4029
1 15.9716 2.23712 27.0176
1 26.3519 5.68468 24.6189
1 10.3487 12.2615 30.1151
1 7.74606 1.47181 27.8355
1 3.51032 19.511 10.8144
1 17.9218 13.9961 7.62344
1 3.56608 16.6444 29.9364
1 3.59097 30.2793 12.6459
1 13.7012 2.26201 5.59457
1 30.4352 20.1674 6.95691
1 14.0618 3.09077 22.5117
1 2.60879 23.4526 23.9013
1 26.9217 29.9363 24.1523
1 12.3218 8.65593 19.1877
1 14.6483 16.0376 13.8452
1 16.769 28.8237 22.3774
1 9.48513 5.19796 7.35404
1 17.7443 30.4463 0.118166
1 10.0113 21.7298 23.1883
1 26.4998 1.58352 16.3931
1 6.61542 9.06502 27.6664
1 25.1853 23.8766 5.73989
1 3.68145 9.67654 22.4544
1 17.5372 26.2094 16.8125
1 14.7996 6.72718 6.65519
1 30.2739 3.1977 2.10008
1 27.0065 18.6893 0.398391
1 22.6991 15.1393 22.3972
1 5.29172 0.302298 14.7119
1 17.4727 25.6206 1.95614
1 12.1015 14.701 6.78168
1 17.2201 23.7109 26.4114
1 16.9386 0.918282 21.5095
1 8.30269 24.4686 8.5293
1 27.1889 15.7137 22.2313
1 14.4292 17.0036 21.063
1 11.2664 21.6853 28.5274
1 27.6426 1.57463 14.3538
1 15.9067 9.16789 4.55946
1 13.0691 10.0174 19.5378
1 13.6629 2.46582 16.0128
1 22.9146 30.0717 7.28518
1 3.8321 25.5595 8.08167
1 13.9554 11.8577 20.7856
1 30.3358 15.5818 25.0596
1 12.0295 29.9091 28.9962
1 0.971939 1.16558 15.2935
1 10.4518 19.964 0.751504
1 17.8166 25.053 26.5189
1 23.2064 25.6004 17.8608
1 29.2952 1.33454 26.5797
1 12.0288 3.67252 7.05736
1 1.21552 25.3459 24.3814
1 26.3595 1.00303 1.91136
1 10.1849 10.8609 5.26222
1 1.2559 28.7623 13.0675
1 3.64492 11.3709 29.891
1 18.1811 7.07529 17.0798
1 28.7066 7.41088 16.5067
1 15.4928 12.9293 15.1874
1 29.0564 19.5778 3.56479
1 19.8662 15.7541 19.1379
1 28.8058 9.52614 25.4097
1 6.61372 26.0396 12.4554
1 11.9036 3.88402 28.2527
1 25.7843 27.1484 11.977
1 21.0304 3.73566 6.00689
1 13.4259 7.11483 16.5823
1 5.13665 23.7358 8.30842
1 14.3806 24.7674 14.1233
1 10.717 9.64972 4.99938
1 13.0798 10.1143 27.7075
1 12.7985 29.0096 20.3706
1 18.3009 27.9875 10.6196
1 19.8254 13.6908 15.9521
1 3.84075 20.033 12.0791
1 29.7472 0.337634 22.7989
1 21.1719 20.1466 11.5458
1 23.5533 21.1655 15.4058
1 15.0778 13.0637 3.8612
1 9.04605 21.8574 2.63136
1 5.83891 9.63099 4.79443
1 1.82808 6.67403 19.8148
1 12.373 17.3952 12.4396
1 4.55371 7.3415 21.5564
1 5.09809 7.27931 18.9518
1 22.2356 26.5083 29.7453
1 12.6705 21.6498 6.811
1 11.5724 14.1921 15.5379
1 4.2665 27.8235 8.29101
1 29.8656 18.5156 9.72223
1 16.9842 9.66712 30.3318
1 24.2707 15.0856 26.268
1 3.1274 12.2636 19.9423
1 23.9243 2.2542 1.00372
1 4.54411 7.75642 29.0513
1 22.512 22.0491 12.7998
1 27.9985 1.13187 25.7534
1 13.7468 11.6658 15.7939
1 0.212467 16.726 12.9202
1 10.0032 4.63701 19.8753
1 27.2317 22.8547 6.43064
1 2.4606 26.9995 3.51048
1 26.2507 25.4398 21.2856
1 8.70871 15.1993 5.72347
1 24.9236 2.32372 26.2903
1 11.9751 12.6375 14.3652
1 18.4904 13.3347 12.8496
1 3.03856 18.2546 21.5277
1 18.3637 24.3072 11.4268
1 7.55638 26.8303 16.6651
1 1.01312 2.92206 4.67104
1 0.474238 24.0258 21.8116
1 18.1162 18.9623 19.838
1 7.14921 28.3376 16.6054
1 5.70813 16.264 17.9634
1 3.97885 5.32961 8.95044
1 25.6646 2.99319 13.2521
1 2.84349 19.728 3.13526
1 13.8225 13.5083 25.5511
1 5.51784 0.565019 24.0655
1 6.08673 26.6224 13.694
1 11.3686 24.5075 0.3857
1 5.9787 11.8286 9.23296
1 25.5306 1.59486 17.3944
1 9.01272 29.1172 9.25389
1 17.2794 1.41673 17.5887
1 21.3388 23.9351 26.6943
1 23.0039 17.2982 0.436512
1 7.82364 8.15146 3.15678
1 12.1772 6.16533 7.76992
1 17.5552 4.83375 4.30486
1 1.83068 27.8467 6.2647
1 22.6054 12.5039 0.172687
1 8.2314 8.79771 4.40037
1 27.6925 11.8285 30.4342
1 1.48492 8.7863 15.7132
1 12.9365 16.973 21.3982
1 8.30024 7.90125 19.1979
1 15.3664 0.399154 0.802013
1 23.7884 6.24425 20.888
1 17.3947 0.76742 3.874
1 22.8027 7.61453 10.8028
1 21.2581 24.8368 12.8122
1 15.2929 16.4869 0.887795
1 25.8266 4.3108 24.6849
1 17.125 17.4945 13.0022
1 3.69402 4.44225 0.122225
1 17.3807 14.3565 6.29422
1 6.17463 18.1048 3.32983
1 17.8576 16.2674 12.3628
1 2.26345 7.99726 19.6808
1 24.1108 7.90994 28.2137
1 16.3939 3.61714 26.7542
1 10.8255 11.8829 22.1971
1 9.44907 14.2781 11.3155
1 9.91224 15.4975 18.9844
1 2.74167 9.9429 25.8983
1 1.68367 13.8787 29.892
1 6.37643 11.0105 8.25281
1 8.15348 13.7332 11.6206
1 29.2652 10.3157 24.1228
1 2.75806 4.87272 17.3065
1 14.2847 17.1694 10.2518
1 21.4317 18.7061 6.77998
1 7.306 14.0426 12.7633
1 25.8528 7.89946 1.46253
1 2.64579 30.3502 11.1765
1 8.41486 15.0477 18.5964
1 11.4053 8.31691 20.471
1 0.310995 14.2197 18.1727
1 1.2191 2.28837 26.4103
1 20.4781 17.8312 6.45367
1 28.7675 14.04 29.3723
1 18.941 27.9493 21.9112
1 1.96736 0.790082 22.6066
1 4.44886 12.4677 19.9147
1 15.5363 17.3684 12.6143
1 27.9039 6.79856 8.0934
1 22.9289 16.8218 6.33933
1 11.74 22.1965 3.34558
1 7.61804 11.4946 20.4454
1 14.497 19.1931 6.25216
1 13.8305 10.72 11.4383
1 14.7834 30.366 9.71394
1 27.924 29.3022 17.1252
1 5.59193 2.80009 28.8182
1 17.8728 14.9183 16.5457
1 18.005 10.9768 28.9125
1 23.502 29.7685 24.9981
1 3.26518 13.375 2.04043
1 21.6816 10.8061 22.4691
1 15.8342 8.01508 21.7986
1 22.1387 14.8333 1.40413
1 15.3596 23.1195 15.414
1 28.3534 19.0443 27.3795
1 0.926619 29.4701 14.0384
1 8.39998 12.188 29.5547
1 19.5183 0.8075 22.5318
1 4.87986 4.6482 4.73372
1 21.5526 15.775 12.9801
1 14.1471 0.186378 23.7147
1 7.28662 26.0419 25.4346
1 7.94619 27.3826 21.9877
1 2.80069 28.2454 30.2325
1 4.83644 1.96 22.0187
1 2.61762 17.2262 2.88905
1 1.84269 11.8071 7.51343
1 10.9866 22.9452 8.30168
1 13.5158 28.2975 24.37
1 0.682947 26.6116 7.87555
1 20.208 9.18778 23.5084
1 11.9576 12.7822 10.4017
1 7.50098 7.46697 21.7622
1 1.2938 30.1054 10.8387
1 3.52703 26.6328 25.2879
1 13.2364 21.4199 5.38494
1 22.0862 5.54742 8.54918
1 3.91417 27.3325 1.83058
1 17.5127 28.1106 1.21331
1 28.2869 9.05346 21.9795
1 23.5094 19.6869 21.6064
1 11.083 29.0903 17.248
1 20.451 28.8754 18.7408
1 25.8735 16.8027 15.8736
1 10.9523 22.1827 10.7077
1 21.368 13.9398 28.2275
1 6.37886 15.9256 26.8369
1 10.556 18.6697 27.7487
1 9.36362 15.0165 30.1563
1 23.8925 20.9216 21.309
1 5.48236 19.6558 6.75595
1 11.9451 10.7656 27.1589
1 28.7124 0.97976 2.97814
1 26.9627 6.2067 26.2601
1 7.09532 17.9296 28.9322
1 29.3993 11.4226 21.7163
1 2.2251 11.4306 16.2627
1 5.82815 28.5493 6.51776
1 0.949894 18.1932 24.284
1 23.846 5.22581 28.1948
1 24.4048 1.82826 28.3673
1 9.88118 5.00156 21.4689
1 13.0147 5.67752 8.72968
1 30.0313 27.798 17.3983
1 12.7644 16.5785 8.50207
1 9.87893 2.8597 4.6283
1 20.7146 22.361 3.17752
1 12.8898 19.6726 18.1459
1 1.51784 8.42859 29.1666
1 19.3321 12.1245 19.5313
1 14.747 23.3431 4.8616
1 3.52 25.3177 16.2452
1 16.81 20.0655 21.8126
1 14.6396 17.3247 28.3613
1 7.01064 14.2716 2.62855
1 4.37169 6.56917 9.02557
1 5.33984 11.4756 19.6373
1 5.92407 23.4748 14.6449
1 29.9142 13.6481 22.539
1 4.12486 9.69261 11.9688
1 5.05522 7.43391 1.6771
1 20.4012 3.28607 26.2357
1 0.163737 29.0446 15.4985
1 10.8328 7.31133 27.5025
1 28.1725 14.1045 8.04105
1 14.7905 16.8315 6.46427
1 5.61202 19.6801 13.9579
1 15.2326 13.1616 25.3776
1 19.9728 21.9502 15.1209
1 7.34462 29.4832 20.9623
1 16.3578 18.8925 27.1941
1 26.7502 7.42579 18.7708
1 6.70733 24.0326 13.7928
1 18.0353 28.3497 16.7552
1 18.7414 11.5335 15.7005
1 24.6124 19.1228 15.4914
1 12.9412 9.05744 15.3699
1 25.1544 12.8588 28.0044
1 12.6781 3.3463 29.2238
1 25.5024 21.866 27.302
1 4.10301 26.6061 18.4572
1 29.8323 22.724 15.1494
1 17.921 29.6143 24.4698
1 25.9564 21.8707 9.39175
1 23.2757 1.13395 23.4801
1 6.18445 20.1938 19.2316
1 17.6768 8.03487 12.2358
1 0.640036 19.9116 30.282
1 25.4223 0.547548 4.86194
1 27.0287 20.7696 2.88618
1 24.9302 23.1581 15.2451
1 8.7003 18.5256 10.8255
1 16.5353 13.7798 30.0186
1 23.6257 28.596 17.7365
1 13.9508 18.5783 7.12646
1 28.3399 17.1746 24.22
1 4.16788 27.8409 30.0881
1 18.0727 12.082 19.0357
1 26.0497 20.3391 6.45388
1 7.57498 12.6467 10.923
1 23.4556 28.6261 13.3122
1 1.53291 2.72997 15.6735
1 13.4731 24.3245 10.9916
1 9.85044 17.544 27.432
1 26.0603 26.7747 21.0061
1 25.872 1.8509 23.8778
1 30.4414 10.7557 30.4143
1 12.7163 5.63248 5.47641
1 20.8266 17.9389 9.40555
1 30.1448 29.2851 25.1021
1 26.252 11.5178 12.3296
1 6.79238 2.31333 8.87264
1 21.2626 4.15511 27.0677
1 23.8236 16.0572 25.348
1 25.1382 17.1968 28.3158
1 0.486963 15.0652 13.1285
1 25.39 19.4788 9.41868
1 13.9159 22.4573 27.2566
1 28.8504 29.3669 22.8801
1 3.87004 5.34785 27.2088
1 2.15309 16.6594 30.2299
1 12.915 15.2867 30.1563
1 18.7005 4.16912 24.1678
1 19.819 13.6061 21.6825
1 10.0128 11.2161 0.550027
1 19.7776 10.879 16.4453
1 4.06609 6.52666 22.4915
1 9.65602 18.7163 6.97494
1 11.8317 13.0845 21.8201
1 11.5168 16.8753 23.636
1 24.8605 2.11073 20.473
1 27.96 17.8542 0.877052
1 24.9118 7.66648 26.8563
1 4.31719 0.180345 19.9067
1 18.7001 25.9739 4.70102
1 22.3357 20.4548 27.8579
1 9.98247 18.9054 25.5383
1 16.6046 0.80915 26.3697
1 17.6623 18.811 18.4241
1 12.5603 23.2065 8.66292
1 6.86978 6.96843 3.2141
1 1.38806 27.865 27.3803
1 19.2766 22.0721 9.90811
1 19.2706 2.10771 15.2647
1 1.57073 13.2844 14.4824
1 12.4165 3.00988 5.63647
1 20.4905 18.9388 27.8284
1 9.48246 24.8456 8.51348
1 6.92472 19.0077 14.6535
1 22.3272 15.0496 16.0339
1 8.02277 23.7537 3.26897
1 15.1598 24.8345 21.4393
1 17.9385 20.7236 16.4406
1 12.3129 0.840397 27.4906
1 15.787 11.2665 6.09581
1 6.54478 20.5525 25.8189
1 9.98895 6.57882 5.89452
1 10.6845 6.9682 4.48236
1 6.38523 14.6482 5.0152
1 5.53557 20.0279 28.9039
1 30.3184 8.77708 19.102
1 27.7191 12.0844 20.3058
1 19.3003 17.8587 0.313177
1 3.97014 0.87226 18.5634
1 13.793 7.74576 13.3096
1 12.3019 30.3257 18.8853
1 5.10434 26.9039 0.468869
1 3.96602 16.6644 28.0599
1 12.6833 17.9051 1.18353
1 3.50289 27.8694 10.7481
1 3.06921 28.0286 24.5782
1 5.78097 9.06554 24.1557
1 20.3822 21.9853 6.18269
1 29.7209 21.1705 9.71514
1 2.09754 9.0055 13.4015
1 26.8752 29.7296 21.7198
1 7.04605 8.14293 11.3808
1 6.25821 18.0036 23.6697
1 29.4511 18.3304 27.5275
1 18.6321 12.9284 15.5268
1 21.9403 20.0079 18.6346
1 11.0732 29.5129 25.519
1 7.33115 19.7688 27.0617
1 29.5117 8.91389 13.1932
1 8.70095 7.64552 17.8471
1 10.0035 3.85611 22.6508
1 10.9057 9.90232 14.4485
1 29.5572 2.92436 5.81112
1 8.54722 27.1757 7.04264
1 7.39767 10.6685 25.7456
1 11.2534 23.207 15.5511
1 13.8044 10.9763 16.9008
1 15.1764 21.808 20.9183
1 18.4638 26.1579 29.0378
1 28.4235 15.4144 22.2607
1 20.7441 23.4481 12.8305
1 9.74031 14.8381 24.743
1 26.0417 22.7722 5.82701
1 3.95477 9.03989 3.99602
1 13.0797 28.9771 28.7973
1 12.9053 9.05174 13.2255
1 26.9102 9.3201 25.8155
1 28.177 5.70104 18.378
1 8.25851 13.2423 14.8621
1 13.6786 26.6933 11.0083
1 19.9517 26.2034 25.8152
1 6.45541 21.0549 23.2759
1 4.95897 0.842749 12.159
1 21.3405 6.94138 1.8327
1 23.8743 8.58599 26.0797
1 23.8609 0.690287 4.65463
1 4.8761 0.639483 26.279
1 29.5833 7.14721 23.6254
1 27.3728 3.17315 17.9733
1 11.4063 11.7841 29.3048
1 10.4608 4.06157 3.89466
1 3.41872 15.9241 16.5874
1 10.9685 27.1706 24.1804
1 14.4718 4.77621 16.4977
1 12.3635 26.3197 14.2603
1 18.2949 18.7102 0.200303
1 16.5413 27.0333 7.53724
1 10.6429 13.3818 11.31
1 28.8663 15.7007 1.43938
1 9.08591 18.7729 4.67415
1 0.540582 9.80037 0.699952
1 29.4016 28.2473 11.8466
1 26.0559 7.82034 13.1843
1 23.4722 11.3185 28.1429
1 24.7027 24.2108 8.83598
1 2.58247 25.2334 21.4738
1 28.3852 2.44989 2.94475
1 8.94457 13.4986 21.2401
1 0.742123 4.06568 9.62192
1 0.924608 2.37131 2.06519
1 1.29646 27.2012 15.4787
1 10.4396 3.59745 28.7222
1 13.0991 5.46343 1.67256
1 29.4556 16.235 21.9795
1 8.75872 7.14093 2.71916
1 8.89923 15.5831 4.15491
1 26.8428 2.6589 14.0525
1 6.40458 23.6633 23.0642
1 6.03114 7.64237 12.4821
1 16.1995 16.2959 18.8164
1 22.6529 28.834 10.7554
1 8.42537 1.14694 12.709
1 23.7161 27.9935 29.2916
1 29.2223 6.25296 19.7741
1 14.502 19.0634 16.3431
1 9.43133 20.3361 3.33352
1 28.9157 24.4895 3.54161
1 23.1779 25.3171 30.0443
1 3.98926 16.5584 7.99464
1 21.6979 29.5383 19.7815
1 28.8593 23.6318 15.2967
1 23.7695 21.373 12.5776
1 7.07582 13.2264 4.59177
1 8.64277 8.74393 6.70262
1 2.96205 26.2692 2.15951
1 0.427339 20.3505 27.1089
1 13.3646 6.44289 20.0742
1 18.4924 3.64966 30.2156
1 21.0054 1.37172 0.526908
1 9.06209 2.57652 24.3288
1 3.35399 0.911763 0.517614
1 19.1101 28.8067 19.6687
1 3.07299 16.1016 21.5638
1 16.1336 26.8969 19.3438
1 24.7699 7.6262 3.47547
1 4.02139 19.2883 15.8566
1 18.5295 5.14205 10.492
1 14.0653 6.7203 27.0079
1 19.779 15.3224 12.6037
1 20.3707 3.4427 22.5795
1 29.3257 18.2726 0.664188
1 1.17463 18.6505 17.5846
1 20.665 5.34484 8.53751
1 30.3194 21.7712 20.9012
1 28.2688 26.4225 27.0751
1 6.29761 20.4996 4.39495
1 29.403 26.3953 27.9087
1 24.957 27.5094 17.785
1 14.0495 9.22008 7.1711
1 30.076 23.0056 18.2574
1 16.8839 15.3362 3.98133
1 16.069 21.0765 27.2531
1 28.2471 28.7055 26.6524
1 13.2941 6.37758 29.458
1 29.5061 30.1171 15.5004
1 22.6814 10.343 27.8473
1 13.3994 24.1044 23.2408
1 8.25747 20.5272 27.763
1 22.5448 21.975 15.5864
1 2.62837 21.8212 7.54216
1 28.9255 8.46335 28.1832
1 26.782 22.4752 30.172
1 1.18506 14.8499 5.32976
1 22.4483 16.174 25.5216
1 18.2932 7.67123 20.1057
1 18.7764 1.95904 27.0236
1 27.9393 27.7104 23.867
1 5.65608 9.61594 13.7091
1 3.79149 5.45712 6.60343
1 30.2045 6.3397 14.142
1 21.7014 5.77737 12.1105
1 28.142 28.5098 5.71847
1 11.5054 25.6588 10.0963
1 3.47318 13.4916 17.4128
1 11.5001 24.2509 16.4575
1 23.9707 9.99796 26.206
1 9.29532 10.5497 24.9824
1 8.0142 18.5815 29.9007
1 24.8092 9.46871 7.16464
1 6.31406 19.0446 28.0435
1 28.0068 24.0326 12.7434
1 6.73456 22.0527 26.3246
1 28.2672 12.7137 14.5632
1 13.0041 29.8267 3.6393
1 26.3489 16.8716 9.64919
1 23.5607 21.9053 18.2694
1 16.0821 5.92485 29.8874
1 10.9284 29.6033 1.88646
1 12.6696 1.91239 18.61
1 11.4492 26.3651 28.6889
1 18.508 11.8987 6.93393
1 9.60249 6.44798 3.80807
1 2.00784 17.7179 5.88937
1 7.59507 28.3276 14.4686
1 21.076 5.03375 20.3262
1 17.779 10.5905 6.98214
1 2.72156 14.4526 2.69989
1 2.91355 9.85412 18.1175
1 13.1957 1.06599 20.7978
1 3.7773 1.14553 16.1787
1 2.43454 22.8358 19.0923
1 5.01516 19.9885 25.8027
1 8.58005 11.6687 24.0172
1 6.58077 6.83319 18.7097
1 2.66017 2.79357 28.544
1 0.989365 27.1615 3.75489
1 3.6665 19.9112 9.60946
1 25.0765 11.3305 21.2015
1 28.1067 8.25769 25.2234
1 30.083 7.35492 28.195
1 27.9223 23.9365 6.78939
1 13.9384 25.5025 4.45676
1 0.771317 27.2539 26.3166
1 27.0449 17.2958 24.663
1 18.981 10.4682 21.7715
1 7.29647 7.87191 26.1044
1 3.65353 2.91752 22.3884
1 11.5452 26.4683 26.2019
1 27.0511 18.8992 15.2486
1 10.8672 23.8081 23.7418
1 25.0519 12.6605 20.7348
1 14.4614 15.7126 2.65088
1 14.5711 0.576325 20.5199
1 16.2154 10.7899 22.7564
1 6.21934 29.8332 18.6278
1 3.16665 28.2004 9.38354
1 16.5081 14.8776 22.436
1 20.2589 0.394641 16.3181
1 2.14626 27.1989 7.45393
1 6.39132 20.0592 9.12114
1 26.7682 24.6417 2.95167
1 2.02762 11.7988 28.1191
1 13.4053 18.189 12.4862
1 9.34567 0.827461 16.3243
1 14.1119 8.2039 1.68263
1 11.6157 4.12065 16.005
1 11.8806 27.1208 27.5087
1 13.2138 14.6742 7.90268
1 10.7752 6.8662 1.73468
1 1.14187 26.7773 23.4603
1 9.14426 25.6643 23.4985
1 19.9368 6.56792 14.6536
1 15.3404 4.89568 4.36099