4096
Atoms. Timestep: 720
1 16.335 13.1828 13.1082
1 22.6744 27.3141 22.3503
1 13.973 7.72916 29.996
1 16.9832 6.78624 30.0724
1 30.4706 22.5596 4.20567
1 16.3472 23.3037 27.9385
1 19.5286 0.344563 10.8107
1 21.9249 27.3704 2.17747
1 16.5055 1.1048 8.24506
1 14.5202 7.54897 0.903798
1 24.2118 6.16037 20.7039
1 27.4341 2.23998 19.7746
1 18.3652 28.4575 14.9156
1 13.7696 3.90256 1.00434
1 24.7937 23.2153 14.3417
1 8.94079 23.9421 26.9892
1 30.3322 26.5047 23.418
1 3.75299 8.08438 28.528
1 4.70572 9.76435 27.927
1 2.18301 0.168874 14.8933
1 6.10034 29.3865 9.78379
1 13.0073 19.3634 14.0729
1 18.4585 14.4501 16.0327
1 2.30323 20.7456 22.4694
1 8.66304 6.99831 4.76239
1 27.7788 14.6299 13.6435
1 15.5212 27.0565 8.73855
1 6.49609 8.88691 11.125
1 14.5769 19.669 0.869953
1 11.1376 22.149 27.336
1 6.10643 23.9966 7.08745
1 7.43378 17.1794 26.1323
1 17.604 20.0908 7.80256
1 11.5292 10.8723 19.2078
1 4.71456 26.2597 14.9307
1 12.5259 18.1434 16.56
1 4.3577 3.26488 21.9563
1 17.1198 24.9356 1.83763
1 9.25174 16.036 27.2499
1 29.9909 9.99519 18.8428
1 20.6316 6.11973 21.869
1 28.0171 19.8483 7.74192
1 8.5672 14.9298 16.3772
1 20.6139 15.9018 20.6277
1 22.8434 29.305 28.6221
1 18.0411 30.0054 21.767
1 13.35 2.21139 22.6299
1 14.7573 7.05893 26.5039
1 7.02772 19.3978 8.80584
1 17.4074 28.802 16.1598
1 18.0371 7.9926 7.15188
1 17.7357 29.6127 23.2047
1 6.58299 21.4601 5.02596
1 15.6314 2.49308 0.978862
1 6.08291 27.8037 25.6497
1 17.2871 12.986 12.0237
1 0.471253 8.94159 19.0216
1 11.3305 1.37308 1.38563
1 4.39068 24.4821 24.5919
1 20.9424 8.82635 3.52199
1 26.8771 28.526 14.7638
1 4.19856 24.9248 12.9926
1 18.6212 20.0804 12.0802
1 5.16993 8.75878 2.39428
1 8.23931 1.33949 3.05681
1 17.2928 21.1981 4.37126
1 20.1336 23.6035 2.49194
1 23.3637 20.3537 11.0394
1 6.77345 29.9819 19.6913
1 21.8574 5.59738 10.1269
1 8.27935 25.2124 27.7423
1 26.5382 6.47208 8.41482
1 2.94877 10.5301 3.50805
1 9.78052 27.9437 12.13
1 0.491944 3.10424 8.52926
1 20.642 6.65663 30.2286
1 12.5749 2.24253 29.7071
1 23.039 0.329227 18.5352
1 1.96234 7.50935 23.9526
1 5.58783 27.3174 22.2519
1 25.0073 14.3989 1.50587
1 16.3189 12.8898 22.0629
1 15.0862 2.60028 10.343
1 29.4112 22.7182 1.35615
1 1.37774 10.3768 6.63697
1 29.6406 25.9728 14.7965
1 16.5131 8.05371 29.3867
1 1.55915 1.14106 4.75471
1 16.1036 7.17625 22.9248
1 30.379 9.05426 25.6663
1 19.8658 22.8557 9.31364
1 10.801 4.84798 9.2895
1 19.3946 21.6957 21.8758
1 29.5916 13.5232 10.0981
1 25.5518 22.311 4.86385
1 17.1517 23.3699 10.8127
1 23.1941 21.186 8.04575
1 6.56057 9.87299 28.6891
1 19.0561 2.53663 18.2535
1 11.9747 19.2696 1.24445
1 8.13312 3.42743 12.488
1 3.8501 24.427 22.6268
1 13.4509 25.1566 13.2133
1 15.4338 1.72167 29.3642
1 19.6344 22.9499 15.8212
1 0.518302 20.1888 1.05069
1 2.06877 13.7791 10.2552
1 13.2155 3.66094 29.0574
1 7.81575 6.53832 13.8815
1 11.3853 25.9113 0.789506
1 6.1581 13.8781 4.86469
1 10.8175 25.1425 19.2138
1 24.5696 1.26525 11.2801
1 16.901 30.119 7.66475
1 20.4307 8.7636 21.7622
1 22.7974 16.1616 13.9849
1 13.8507 23.8258 11.5358
1 27.4683 23.1475 4.24389
1 12.6244 1.49783 8.61557
1 14.6941 10.8717 6.43017
1 23.7833 9.79909 20.1564
1 23.7486 21.0335 5.00698
1 20.7117 4.62981 10.6125
1 17.9184 27.2505 17.9697
1 6.54885 15.1533 2.04291
1 21.5495 10.1545 23.6797
1 0.721698 19.4754 10.5841
1 17.4182 24.6075 17.3384
1 11.2217 22.534 13.808
1 5.78307 28.8173 17.546
1 28.7945 18.2048 19.4133
1 11.7224 9.4945 13.0399
1 14.1281 29.0223 13.0616
1 11.5841 4.71624 2.06108
1 8.65874 19.8368 10.5588
1 17.0395 7.47008 14.8735
1 15.0432 7.36571 12.3133
1 24.8724 13.5306 19.5752
1 15.6072 28.6874 24.7285
1 26.2104 23.4831 4.41039
1 20.8028 30.1226 1.14075
1 15.0246 23.2874 24.3788
1 16.137 29.8248 27.39
1 11.7708 26.6798 14.0785
1 22.7146 22.495 11.4212
1 20.2722 30.2003 22.0482
1 30.2535 9.82941 12.3893
1 23.1104 12.5835 1.54868
1 23.3898 13.2402 7.01418
1 20.1799 21.5374 15.3253
1 26.358 23.5186 29.0505
1 4.35651 24.9256 27.9278
1 24.0185 13.096 4.03243
1 18.8332 2.55583 7.95503
1 7.03895 22.8826 1.59123
1 26.7463 8.94403 12.045
1 8.28114 17.8533 20.0967
1 12.6351 3.00853 25.3135
1 7.16096 24.2262 1.28976
1 29.6265 11.8596 25.3451
1 17.5711 21.457 7.23246
1 6.38567 19.7219 21.7015
1 5.45568 18.9058 12.4944
1 11.0475 0.855819 26.3336
1 17.7149 26.1198 13.9141
1 1.4939 10.9018 12.7958
1 22.4878 27.0812 5.16622
1 16.856 14.8855 20.061
1 15.7022 11.8808 14.9391
1 12.9984 9.69935 21.0727
1 1.75865 20.0491 28.8043
1 13.355 3.66338 19.2797
1 10.4669 16.1705 17.6703
1 28.8032 6.99708 17.9641
1 27.045 9.32455 7.85007
1 18.4398 20.5591 26.7349
1 5.9635 19.0271 9.67258
1 11.3459 29.1515 5.24779
1 23.6907 17.6301 17.0441
1 0.109291 13.4343 3.64936
1 9.80315 8.81692 16.1832
1 21.029 13.3936 22.9671
1 7.02735 9.82732 20.9707
1 12.7913 29.3008 2.78335
1 0.594233 25.9521 5.12514
1 28.5192 7.59497 10.4875
1 18.9284 0.647654 2.79428
1 13.4906 18.6287 11.7619
1 27.0403 5.27134 17.2875
1 1.16943 8.73352 2.87587
1 19.6843 13.4599 0.851765
1 30.3444 8.0189 21.9443
1 26.7731 15.1537 19.8912
1 14.3047 12.8136 10.2419
1 20.6086 4.08091 23.5282
1 0.733978 4.75636 2.95393
1 5.07845 21.1734 12.5422
1 6.21329 10.0999 18.4557
1 8.809 2.71395 6.65552
1 20.5919 21.3447 2.72586
1 27.4039 24.2891 26.0134
1 27.8283 29.6376 8.038
1 18.1061 15.2116 2.96558
1 8.69365 2.28366 12
1 30.3089 20.9789 7.50632
1 11.0151 12.4498 16.2419
1 20.6752 1.64502 20.1065
1 25.2252 16.0466 29.0379
1 30.0472 19.9875 19.5052
1 12.1506 4.85713 29.1021
1 25.6949 8.17726 10.1517
1 15.4378 0.591955 27.0871
1 14.0622 17.846 5.45859
1 16.5496 4.86801 11.9653
1 1.76015 24.5007 7.4662
1 4.86853 14.6604 19.6517
1 24.9211 14.4364 23.2865
1 10.1448 26.3338 26.9511
1 5.15751 15.8497 6.72357
1 7.53695 13.3392 21.6887
1 23.3781 4.91698 0.881235
1 29.3944 15.8956 19.2815
1 16.926 2.8204 16.3533
1 12.0929 15.7016 2.51503
1 22.4442 16.8018 7.65835
1 27.1717 16.6021 20.0066
1 22.6453 9.19435 10.7569
1 26.0623 27.3779 21.6889
1 2.97554 14.4152 0.987275
1 22.7649 29.0273 16.3582
1 2.36458 1.07258 25.4172
1 15.7978 8.34838 6.95934
1 14.2495 13.8957 14.322
1 26.876 6.28851 12.1613
1 1.9243 24.3667 16.9784
1 27.2812 22.3228 17.1212
1 2.69859 7.34006 9.53776
1 6.14082 7.44226 10.9278
1 24.079 4.65225 5.95688
1 28.0636 27.6968 4.95936
1 15.9617 1.01308 24.2763
1 15.3906 6.7442 20.2071
1 29.2768 10.6553 6.92451
1 25.6001 2.93167 25.5291
1 14.7691 14.0814 1.04289
1 11.5981 12.8666 3.19083
1 3.85894 20.8841 16.5126
1 10.3542 26.2896 4.76788
1 24.6755 20.5913 28.9771
1 21.4161 21.4316 14.3696
1 27.7167 21.7832 4.48596
1 13.6102 8.04394 14.027
1 14.348 19.9515 4.16462
1 10.3071 5.73064 25.438
1 5.09331 9.88718 3.29647
1 30.0832 20.3745 22.999
1 23.8713 7.24002 6.58242
1 5.22755 14.7596 4.6311
1 28.9526 1.95671 15.0242
1 28.3758 4.22569 21.3352
1 7.1786 8.86915 27.5882
1 7.64625 1.05824 0.526891
1 17.0935 16.6534 28.8562
1 24.2259 10.016 28.6221
1 9.16019 12.8761 8.49711
1 5.253 17.5011 9.47352
1 10.0713 1.73446 19.8535
1 29.9111 29.5261 25.5249
1 25.5395 3.34641 8.06049
1 2.7185 24.8373 2.02834
1 30.0952 6.77898 2.0196
1 16.3047 5.91019 17.3527
1 11.7633 6.54945 25.5445
1 5.97457 16.3049 1.4705
1 22.328 28.6218 19.0807
1 7.39589 12.3806 6.83797
1 24.8839 7.39007 11.3536
1 6.34019 28.5283 14.9461
1 3.98349 15.9868 25.4752
1 6.46676 1.11146 23.3306
1 14.3111 12.3102 6.37143
1 25.5554 2.7556 21.3648
1 15.4619 3.37152 5.36441
1 23.2001 26.0472 7.42878
1 2.32446 0.0815272 17.9515
1 13.1317 4.42608 24.9788
1 24.5498 20.0971 23.3235
1 24.6186 19.9012 4.46526
1 16.5742 27.9165 8.26388
1 10.9272 8.76204 10.7235
1 18.6079 14.8796 22.2502
1 11.7826 21.6912 8.30605
1 2.61414 18.9293 1.37877
1 10.5423 11.7073 13.0562
1 27.8688 15.7718 26.2401
1 4.13258 12.9108 10.6714
1 12.9145 15.1981 1.63906
1 9.83282 25.0186 29.4967
1 14.8713 18.8151 20.338
1 21.0173 22.7548 8.60832
1 4.77958 19.7955 13.0074
1 2.386 4.84442 22.6514
1 25.3753 17.9322 1.26271
1 6.05739 13.204 13.3897
1 8.14167 18.4962 8.7489
1 27.5814 1.90571 12.7091
1 7.42192 23.1012 28.2011
1 27.7432 3.66207 4.64599
1 13.516 23.028 25.3816
1 18.3326 30.1011 18.3706
1 19.9357 18.0416 19.7018
1 1.10545 1.55765 12.9548
1 13.8336 25.939 16.0929
1 27.1863 18.4966 13.514
1 29.3328 8.14244 16.0497
1 13.2867 8.9971 29.2198
1 5.49818 2.38004 13.8837
1 11.0463 6.37722 14.8605
1 23.8279 22.316 23.6897
1 18.232 13.7816 23.2185
1 23.23 14.9554 17.0767
1 15.6202 27.6584 16.1257
1 28.5326 12.5429 28.3706
1 5.43359 29.4412 20.6243
1 9.77422 18.3564 15.3817
1 8.89023 22.5772 9.68545
1 6.99986 20.37 15.7277
1 12.9184 16.8143 29.1682
1 2.94633 6.90222 25.8339
1 10.3151 6.28798 29.984
1 18.6309 25.8706 8.4625
1 16.6532 18.5944 12.5861
1 15.9491 1.03577 18.0451
1 28.7385 19.2225 1.13554
1 19.9037 10.9743 7.76769
1 9.2297 25.978 28.5483
1 17.7874 5.53178 1.14969
1 13.0537 13.3603 3.05079
1 20.8879 15.9407 0.527958
1 6.82546 18.4566 28.5744
1 0.392561 1.31151 18.9737
1 19.2878 23.4195 3.61033
1 22.5096 22.4729 14.3397
1 24.8819 4.34368 13.8886
1 7.62909 25.2683 21.4268
1 5.83109 3.73122 22.4238
1 1.99903 19.3299 22.5977
1 7.46918 22.7476 22.5351
1 2.97921 4.28213 15.7056
1 4.91924 12.0315 0.414861
1 19.0247 0.794603 5.86248
1 17.8424 10.2178 0.920789
1 2.07197 17.9484 19.3841
1 13.9765 4.42395 20.4117
1 8.49306 23.3618 13.0061
1 15.1727 1.36669 21.2428
1 6.5912 27.5006 20.0849
1 19.6693 21.1658 26.7766
1 13.2872 26.3157 29.7564
1 13.4091 0.204217 10.2138
1 18.5723 6.58755 17.3303
1 29.3256 25.1187 1.63749
1 21.329 21.2068 17.8553
1 18.8667 21.71 6.38659
1 16.0615 14.9099 15.0957
1 9.28483 24.4265 23.8038
1 9.39218 13.3952 2.20246
1 18.9829 28.1388 11.0811
1 7.95712 3.6643 19.0286
1 16.1336 1.22866 1.58665
1 9.95758 8.69031 13.7516
1 26.7615 29.9362 25.3085
1 7.36407 0.382343 14.5164
1 25.0696 6.42062 19.4689
1 7.42423 16.6675 9.72997
1 6.64646 27.0649 27.0151
1 23.4016 12.7556 16.8694
1 22.2954 18.5154 23.331
1 22.8066 8.45894 13.4545
1 14.7193 23.9273 25.6663
1 17.5555 28.7213 13.0885
1 7.72116 6.52815 27.0341
1 5.14851 5.57254 1.44713
1 23.2732 0.563583 28.3374
1 17.6936 25.719 11.4298
1 6.52759 2.96256 21.4636
1 2.46175 2.72406 0.561912
1 11.5448 23.9698 20.915
1 15.1291 8.95106 15.6205
1 10.3607 29.9119 13.5827
1 19.56 16.7377 20.2447
1 3.58324 14.4991 18.9981
1 22.7368 5.51391 22.7442
1 23.049 29.4497 1.34276
1 12.8913 12.6659 8.47054
1 1.77831 24.0013 4.23805
1 13.7862 25.0138 5.4664
1 22.1477 29.4991 9.99537
1 14.988 24.6753 0.452994
1 13.2387 16.6832 18.5444
1 8.48969 28.6981 26.3169
1 18.0183 2.21784 2.01609
1 20.8432 26.2443 4.64867
1 1.96798 9.49195 8.95619
1 29.812 16.0558 6.98111
1 5.57394 12.5297 20.9471
1 25.8755 30.4007 21.5134
1 7.07297 25.3098 14.5369
1 29.7914 6.84516 12.286
1 9.45098 13.6271 23.2923
1 11.7522 24.0501 5.63648
1 4.91655 12.1177 3.86771
1 25.3298 14.8843 19.8937
1 17.6045 8.62799 27.2888
1 18.5863 11.1938 3.21998
1 26.2759 21.3733 23.0528
1 7.69778 6.81663 25.5081
1 5.23444 0.612493 27.2006
1 5.10954 7.62476 26.3855
1 25.7058 9.85032 1.14252
1 8.31589 27.2149 3.18339
1 2.541 0.27512 2.72994
1 13.7131 1.7662 2.23589
1 3.58783 4.72102 1.33396
1 12.4343 22.7176 8.98551
1 22.962 0.231358 5.62199
1 19.465 16.6817 27.7236
1 13.4416 18.8314 19.3959
1 19.9571 24.8383 18.3522
1 4.80198 27.3962 11.0615
1 14.0872 25.4922 25.2404
1 19.8755 19.3338 29.3673
1 25.1885 25.0606 1.49117
1 0.699713 11.2104 3.62472
1 12.7619 26.3104 26.9973
1 9.06992 2.83855 22.3395
1 11.156 10.9871 16.1467
1 15.8728 13.2225 18.2144
1 7.57914 15.3961 17.3046
1 4.02417 29.2526 20.596
1 10.0697 18.2112 4.62959
1 23.9957 10.3964 23.1157
1 1.85739 15.2715 3.49797
1 13.0896 26.1921 8.66837
1 15.9695 13.1794 9.78371
1 22.2367 4.69094 20.6999
1 25.4157 6.40933 12.2058
1 8.34016 3.86112 5.74312
1 5.24071 18.6683 4.06399
1 15.3772 23.0114 5.25638
1 10.7482 27.086 20.8332
1 1.73732 7.34963 17.8037
1 9.50535 7.12233 25.5718
1 8.84252 1.60447 5.58708
1 7.72963 14.5445 4.41756
1 14.1364 14.5991 15.5994
1 15.6932 25.5999 28.735
1 17.1832 11.3898 27.4027
1 22.0345 28.4569 22.5952
1 8.11514 3.45116 16.4332
1 6.76274 28.5713 3.36489
1 10.0036 12.9113 15.498
1 29.4071 10.318 1.06177
1 23.1773 3.48901 28.5781
1 14.7838 4.09676 27.4234
1 28.0077 15.6418 10.0934
1 22.5667 26.3988 26.5025
1 30.2869 3.80374 4.50883
1 5.24006 28.4412 13.1734
1 3.31058 22.7744 1.12448
1 2.65138 21.3349 1.18445
1 12.9973 30.0473 11.4511
1 15.9142 5.67733 0.486352
1 19.3862 14.5461 13.1986
1 15.8996 16.6627 4.9058
1 14.7055 16.4378 5.69512
1 12.6923 22.9838 11.776
1 24.4886 6.29236 18.1269
1 29.8069 12.1447 13.1603
1 11.2765 28.6673 12.7103
1 14.7915 0.418405 23.6011
1 27.2008 28.3632 16.1962
1 28.2374 6.07913 1.22539
1 16.9176 27.2039 23.0672
1 6.44767 4.19456 18.9865
1 14.414 11.1935 24.8418
1 8.24406 14.5254 13.4267
1 25.5409 16.2408 16.6803
1 18.9588 5.90179 9.53476
1 13.8622 14.506 7.55116
1 0.302954 17.1958 16.1643
1 25.6248 7.72465 8.79883
1 7.52246 21.0523 18.095
1 8.8032 19.9177 24.7887
1 14.3883 29.1372 6.73176
1 12.27 3.20869 3.93468
1 6.82066 4.92977 4.85176
1 23.9928 27.2478 7.41852
1 21.4843 15.1599 14.1397
1 15.9571 7.05589 2.88065
1 18.0851 14.2935 24.605
1 23.1716 15.5166 20.2252
1 23.3519 24.3644 20.0966
1 24.2741 29.0391 25.004
1 21.4245 16.6859 10.9581
1 10.6615 21.5398 9.05731
1 27.826 13.0956 3.64953
1 5.10456 2.33431 17.2716
1 2.72995 9.22365 30.0108
1 27.9639 4.10658 26.4123
1 0.0631659 12.6954 0.506172
1 12.461 3.42591 9.98995
1 12.9613 25.9336 0.941896
1 19.0839 0.39866 21.5497
1 20.6545 4.81622 25.7595
1 18.6699 19.6274 8.62889
1 18.5631 25.8052 5.8531
1 5.13242 21.2044 25.431
1 3.19757 28.2924 19.9657
1 8.13968 3.68572 21.3998
1 4.3314 29.7297 4.30041
1 11.7262 12.0584 23.039
1 30.446 18.1946 22.2907
1 8.82517 6.82814 6.08373
1 17.1826 12.3498 17.7259
1 9.14469 28.4899 23.487
1 30.346 4.52096 22.0636
1 14.6631 17.4703 29.9095
1 19.7228 1.66093 3.5419
1 20.298 6.69588 1.06539
1 19.827 12.2496 28.9974
1 20.6282 29.2132 25.9827
1 14.8474 25.4346 22.9728
1 6.18719 28.4763 5.15798
1 28.9246 0.415723 22.3178
1 12.6472 15.5621 20.9426
1 10.193 11.649 11.6456
1 26.5262 11.2261 22.1795
1 19.0526 24.9647 19.5866
1 27.0375 10.1172 28.8563
1 1.5569 29.8731 8.54648
1 8.69954 13.4636 16.0368
1 6.80398 10.3178 7.86138
1 2.0712 0.414747 12.638
1 14.6611 23.8099 16.6333
1 10.7714 27.807 0.864475
1 15.9055 22.115 15.1925
1 24.0804 22.4843 11.5295
1 13.7472 23.2664 14.754
1 23.3855 10.5155 16.4625
1 3.65808 17.8297 1.25523
1 14.6338 16.3739 27.2535
1 24.1749 22.4486 5.23329
1 22.3667 27.392 25.2602
1 24.7533 11.0348 4.50003
1 25.7181 26.3173 11.3767
1 9.08322 21.0953 5.50148
1 4.80889 11.1064 6.81275
1 18.7632 19.1463 26.1939
1 25.5898 8.83516 7.72191
1 22.3048 19.2183 17.3026
1 7.1828 17.2579 12.2982
1 27.8938 23.1443 28.9075
1 4.04529 17.4668 9.95929
1 10.1537 7.127 2.93522
1 1.95012 6.62457 26.9731
1 6.38471 12.4767 19.0873
1 7.58101 22.602 4.84812
1 27.4781 2.72728 26.6144
1 21.1259 20.1584 2.16461
1 1.41991 22.7147 3.97395
1 15.834 24.4064 13.638
1 0.599169 14.3393 22.1897
1 26.1994 9.89337 25.6844
1 13.7129 11.2322 1.63729
1 4.1003 24.623 10.1875
1 15.8838 18.5542 16.9029
1 5.95657 21.1497 11.458
1 26.43 0.450982 14.2679
1 21.823 2.71551 18.7732
1 13.41 21.7694 26.0003
1 6.84739 24.3808 24.4518
1 9.46953 0.411836 6.47917
1 1.82247 22.1273 16.6663
1 23.1532 7.18101 28.5474
1 23.6142 0.721515 19.9207
1 5.35453 22.3181 20.9869
1 9.98075 26.0455 8.48185
1 29.7081 19.5159 10.4355
1 23.6813 13.8347 1.42273
1 29.4473 20.1817 1.18986
1 26.9367 30.0176 18.1945
1 10.9814 1.66304 4.95022
1 16.2969 23.5829 4.08034
1 13.7876 0.725171 26.1357
1 30.436 15.5391 25.7258
1 21.788 3.01666 23.2964
1 11.5111 2.64963 17.3116
1 10.9965 19.8158 3.52714
1 17.7645 22.9827 20.027
1 28.84 1.04936 27.73
1 21.121 24.8392 14.7208
1 10.6519 24.0911 19.883
1 4.17818 25.9241 19.9875
1 8.79531 11.9337 20.3434
1 18.6761 26.6145 7.23408
1 29.4685 13.2067 25.7141
1 14.6034 26.4376 14.6367
1 10.5117 5.29292 4.74428
1 16.5324 4.90085 22.4846
1 26.4378 21.3516 4.77646
1 23.7952 17.4732 26.2591
1 7.64011 3.10816 0.519622
1 12.6005 25.0269 27.9387
1 12.3946 21.6819 4.78201
1 15.8187 16.162 20.0358
1 6.69499 1.60206 21.874
1 10.3825 23.197 16.0665
1 22.5635 22.0146 17.6365
1 18.7603 23.1973 28.1836
1 5.38038 19.039 22.4484
1 22.417 0.598358 11.8141
1 10.8293 12.7818 20.17
1 20.6283 7.37512 22.325
1 17.1935 3.69666 11.4943
1 20.6411 29.8493 15.0799
1 10.1345 19.9824 7.26038
1 21.9926 7.51467 12.9606
1 0.133409 28.9669 3.46856
1 16.6845 1.36796 5.37408
1 19.9375 27.5888 18.8117
1 5.56042 27.2898 8.98268
1 16.2619 19.0009 15.6775
1 4.38159 7.73244 7.81527
1 17.7831 9.72935 17.4445
1 13.9423 5.28362 5.06952
1 0.769059 0.87386 10.048
1 18.1254 5.87534 30.0155
1 10.8759 14.2724 8.03867
1 11.3946 6.44955 18.9555
1 24.6615 7.77897 1.65093
1 16.5285 15.5122 7.86819
1 30.4416 8.1274 9.09738
1 20.9438 14.5474 6.71372
1 23.94 16.6861 29.0032
1 24.1397 19.405 20.1054
1 1.39486 4.94668 26.804
1 9.01529 26.4563 13.7778
1 4.57977 1.90864 2.72079
1 21.5213 6.99737 9.82681
1 14.7842 30.032 1.95608
1 15.2305 8.28303 3.64972
1 8.72004 17.9825 7.36064
1 23.8254 24.9907 11.5453
1 14.3329 4.54545 10.97
1 14.1496 7.93566 22.3395
1 11.0888 4.07335 20.269
1 25.6775 4.92508 9.93841
1 19.267 5.44207 3.38249
1 8.54968 16.9144 29.2715
1 28.9944 23.9248 28.8943
1 11.9504 22.7372 10.5125
1 23.0963 6.26489 18.4497
1 7.42176 12.5177 27.6433
1 7.39093 28.6943 0.977395
1 0.910657 18.2856 25.0879
1 11.3511 23.5777 24.6796
1 9.45996 20.5255 3.06488
1 5.23262 6.55924 3.90878
1 12.6441 7.21161 13.7214
1 22.6603 25.2837 29.3967
1 8.53335 21.8602 8.5051
1 1.55256 12.4599 24.8447
1 1.87486 19.6895 16.1387
1 27.8721 17.3391 7.39597
1 10.2335 5.12312 7.00707
1 22.0174 16.5235 30.1875
1 2.88941 6.6395 20.2568
1 26.8916 2.81584 23.0909
1 10.6266 8.72889 20.8248
1 28.1543 22.2017 8.22133
1 2.90202 22.0617 10.1755
1 13.4689 4.39595 21.826
1 5.30796 3.96878 12.5305
1 20.1382 3.85797 19.7201
1 22.7326 16.7078 4.97892
1 9.4576 27.8038 0.27994
1 3.5747 4.38185 26.3979
1 19.5995 3.69278 7.8283
1 20.0311 1.44157 29.8792
1 14.7054 29.954 19.6393
1 8.21343 24.4456 3.77084
1 5.36911 23.8887 27.8908
1 16.1271 18.0522 24.0341
1 10.4471 20.7467 6.28102
1 13.2126 28.6849 27.1153
1 2.53898 28.3719 27.4779
1 6.58391 18.9176 3.62105
1 14.7451 4.77602 14.5408
1 12.3881 21.3134 27.2769
1 7.46425 3.59399 13.7049
1 27.3572 7.85577 28.7735
1 29.5803 22.0647 7.83946
1 13.6818 18.7775 23.009
1 5.88267 3.48243 20.2592
1 0.096369 5.46977 23.5182
1 10.0109 22.9908 2.31516
1 7.12663 17.1205 6.25397
1 25.2143 1.78248 17.0079
1 13.3226 4.08915 3.88049
1 11.6809 29.4355 15.6414
1 18.8555 0.154917 27.3486
1 18.9572 28.4898 5.53618
1 3.30626 6.46983 28.3613
1 17.2558 1.63558 9.36788
1 10.6595 24.3439 2.92357
1 6.69269 4.5375 7.39745
1 21.4676 11.4204 25.8935
1 8.11201 6.269 2.36919
1 21.0247 3.66708 8.32378
1 26.8694 8.14373 15.9248
1 8.7127 9.00339 27.5522
1 6.9983 5.7945 9.92363
1 16.385 14.8934 27.0719
1 24.7013 5.37949 0.0854325
1 9.07942 9.08353 7.35079
1 17.8904 1.13001 15.4249
1 12.9394 24.8999 9.65298
1 8.89008 13.7372 18.4489
1 21.111 9.40924 14.9691
1 18.9939 14.3806 17.3588
1 3.49803 4.53701 29.306
1 13.0689 19.2947 29.2393
1 3.17486 16.2773 10.068
1 16.6167 12.6673 8.64253
1 12.0381 7.62421 17.0322
1 27.3389 10.446 4.39051
1 17.6654 9.60361 15.9533
1 3.14039 16.9514 25.1545
1 11.5489 8.14518 13.3878
1 4.23127 0.950989 21.8444
1 0.607955 11.5052 27.9895
1 21.1468 15.8817 26.7305
1 5.74787 16.928 6.27863
1 3.72644 14.6037 25.5698
1 28.2814 3.91199 15.5112
1 4.42257 0.957263 12.2462
1 17.5785 23.5099 1.54622
1 2.03029 13.4965 0.911055
1 11.2779 17.0928 13.521
1 1.67985 3.83493 27.5372
1 3.11413 4.57761 3.84784
1 3.93863 8.44956 13.6771
1 12.4178 2.13753 10.8838
1 21.3646 20.3384 21.9594
1 21.3176 2.32174 6.21744
1 24.7323 20.4472 11.1428
1 25.7236 18.6693 7.8838
1 20.8876 1.22767 26.1253
1 21.2466 5.71961 15.5561
1 27.5117 5.46621 19.2142
1 13.4478 1.11862 17.7377
1 16.3504 11.1353 10.6436
1 12.2171 12.2812 18.2477
1 10.324 12.6565 5.54812
1 9.07339 22.8832 16.6734
1 19.7796 24.7227 14.2652
1 11.3842 7.39281 10.3707
1 9.77155 24.8807 5.52865
1 26.3564 27.3898 16.8016
1 28.7981 0.324323 4.19771
1 24.1767 10.8282 19.2635
1 17.3328 8.59307 18.101
1 21.9317 1.38513 18.9572
1 6.72555 14.6724 26.3592
1 17.9005 7.85084 21.2399
1 27.6685 10.2929 19.2042
1 16.7729 15.7869 0.921215
1 12.4696 26.5019 7.23669
1 25.6336 14.4805 26.1679
1 7.17619 26.0618 12.2023
1 11.0972 16.1939 25.0475
1 22.7445 26.7873 29.323
1 29.0313 6.54146 6.56224
1 22.9766 8.22137 22.9314
1 17.6652 24.8807 23.9512
1 1.78686 16.9609 25.0957
1 10.2078 4.91506 2.17896
1 2.05345 25.3261 23.4494
1 2.21757 0.308078 27.0527
1 28.6671 10.2245 22.1483
1 0.91562 16.0467 6.91362
1 6.05164 21.3277 3.58518
1 21.9414 20.9901 23.1737
1 24.3419 29.7415 7.06423
1 28.2984 8.06161 18.7331
1 7.60127 9.02413 13.2523
1 1.00723 2.96745 28.2932
1 24.9722 1.43731 5.64219
1 9.08452 25.4368 1.23878
1 14.7374 20.1901 5.639
1 23.1634 6.62264 15.7482
1 3.34762 26.8811 15.2529
1 21.0202 30.4714 25.3787
1 21.7961 8.91844 26.0453
1 15.1408 14.7987 27.7994
1 7.38147 27.6845 14.0002
1 25.0841 5.5933 23.126
1 30.2737 26.7813 30.2936
1 10.7297 16.1514 2.53035
1 20.1248 11.1544 5.55769
1 9.35782 9.30612 28.7671
1 14.9044 20.0698 2.98409
1 27.6431 8.52935 1.52056
1 24.1688 26.7124 17.6615
1 6.87326 25.1409 29.7055
1 6.209 8.11291 29.9867
1 19.7452 0.335758 8.2249
1 21.1917 28.7877 23.7827
1 2.29754 10.6098 26.4912
1 5.58994 8.74626 25.6545
1 1.33826 13.3023 6.98321
1 4.27323 23.5767 3.62408
1 1.85419 12.9779 18.3187
1 21.8098 3.05718 29.0739
1 25.5983 6.80103 3.76605
1 2.77687 28.6052 26.0178
1 18.9522 7.36555 9.36168
1 24.9722 27.8359 17.2378
1 9.34691 19.3831 9.45729
1 21.0065 3.96986 3.79361
1 21.205 21.481 5.77942
1 19.046 14.2752 20.9657
1 26.9088 7.22896 2.03249
1 21.7399 7.55876 23.1972
1 9.54406 26.0563 24.1549
1 7.82956 25.3074 19.7345
1 11.9155 14.6712 14.4426
1 27.2695 24.1419 23.1622
1 16 23.8014 30.2071
1 25.0914 4.04908 3.62224
1 3.59004 0.151346 20.8807
1 27.4364 27.685 18.0518
1 10.0628 12.8722 18.5891
1 14.3212 10.0139 15.3166
1 19.3765 6.75752 28.0629
1 22.4718 7.30935 17.9737
1 27.3442 3.12286 12.081
1 6.65247 29.0753 28.0462
1 3.92161 9.80348 11.9146
1 6.79936 20.1169 2.85871
1 15.5609 27.6206 14.5039
1 11.151 13.1081 17.7956
1 27.0333 19.2126 10.5958
1 1.0432 2.77504 24.0821
1 14.8433 11.4123 20.8078
1 5.71649 16.7912 22.7962
1 5.06699 6.22466 19.3407
1 21.3217 19.1429 10.9956
1 8.11298 12.1634 14.1619
1 25.9147 18.9075 14.1155
1 20.0784 11.0144 17.8805
1 2.75058 9.49666 18.3963
1 7.92697 8.75047 23.9516
1 27.2159 21.614 1.22403
1 5.22423 26.7808 25.031
1 26.4954 19.1213 19.9154
1 22.7791 26.2531 1.70873
1 1.72397 25.6392 26.7614
1 26.823 6.96142 3.29703
1 9.69044 19.1747 23.4404
1 11.9545 6.8205 4.42045
1 1.98292 20.3765 19.2696
1 23.9814 0.792974 2.97892
1 27.1656 23.9488 1.55989
1 25.1183 30.316 14.5012
1 2.62834 20.8155 10.3436
1 18.714 16.5066 3.4434
1 14.1973 30.2094 18.2768
1 10.2788 21.4137 13.5519
1 0.979206 11.6422 9.58436
1 28.5333 27.5888 26.8403
1 21.8746 22.4999 20.6732
1 29.0403 1.81973 7.68809
1 9.615 15.8648 4.95752
1 25.4357 2.80147 15.6827
1 1.19721 6.06054 17.1774
1 9.77762 26.547 12.5356
1 14.0414 20.9257 0.174644
1 29.6795 16.1367 22.4625
1 28.9551 1.64032 24.0402
1 22.7931 14.3295 29.3554
1 22.4182 9.62589 14.3045
1 20.2916 15.8058 7.37737
1 18.6364 28.5437 21.2045
1 29.0691 9.20078 12.4171
1 10.3496 5.55516 28.7445
1 23.6599 0.576244 25.9893
1 14.67 15.9259 25.6833
1 24.8724 11.4086 28.7646
1 29.5638 13.5103 6.95121
1 29.8524 17.2574 10.3675
1 10.4696 18.3844 29.0321
1 22.7689 0.772723 13.7883
1 4.72999 9.59988 25.0167
1 2.85042 13.6155 28.3364
1 10.551 13.1039 22.4568
1 2.72725 4.29463 20.372
1 30.1012 18.5865 19.3984
1 4.85532 2.82425 4.97414
1 20.8145 2.11751 10.4734
1 8.62885 11.1424 26.1257
1 6.45704 12.271 3.98683
1 8.57254 19.0819 22.1547
1 11.0776 15.3433 13.1087
1 29.3238 3.01354 20.9405
1 21.5532 5.50211 28.329
1 22.0054 8.14817 28.6101
1 9.83976 6.36323 14.2491
1 23.0241 24.0306 1.97352
1 25.1605 22.7279 1.47374
1 13.6974 27.2827 21.7017
1 15.2112 25.4489 18.5454
1 20.268 17.8495 27.2405
1 7.55474 15.7423 6.77543
1 0.145274 27.8733 2.60372
1 1.33551 15.7619 25.4884
1 21.614 26.3308 14.9516
1 27.1175 23.3003 14.7646
1 1.3311 25.0621 14.3242
1 14.7505 6.4629 17.3348
1 22.8621 15.8677 29.2296
1 16.1796 20.0289 2.46935
1 15.2354 16.1325 17.254
1 26.7654 23.7766 19.9259
1 17.0211 24.9793 29.4823
1 19.1184 2.65596 29.5883
1 21.3589 22.2905 23.3553
1 24.1677 2.66692 24.786
1 13.1132 6.65686 7.22386
1 28.217 11.2238 25.7441
1 1.08827 3.84816 18.1455
1 2.97479 5.77157 6.22822
1 12.6367 17.9989 3.39369
1 27.4984 29.6144 26.5109
1 0.900164 25.8836 0.711427
1 26.6134 8.87564 21.4487
1 19.637 15.035 3.48452
1 6.71851 13.0677 17.5972
1 15.3307 10.6627 9.76235
1 20.6034 27.5742 3.05833
1 27.9609 25.5509 26.3364
1 24.5379 11.2327 7.67666
1 29.2375 14.8962 28.9545
1 1.10671 29.7552 15.7352
1 24.6211 24.4962 23.3384
1 8.91467 10.496 19.0869
1 19.2441 24.616 28.2144
1 0.313762 22.0164 10.7382
1 0.143954 2.35974 27.5911
1 29.3053 5.43494 21.233
1 5.47274 1.09285 13.2481
1 9.97006 26.9419 28.1143
1 2.36303 15.8342 1.02767
1 17.1975 15.291 15.7473
1 19.2915 19.7244 13.5594
1 21.6838 8.79954 19.9563
1 27.0186 10.9561 7.34826
1 17.7798 7.71963 11.6895
1 12.7135 8.64476 18.1457
1 29.8267 0.359568 1.99083
1 13.1275 1.50183 5.35426
1 22.6698 0.455122 2.46607
1 11.3798 1.1356 7.887
1 10.2531 10.4071 28.504
1 5.96376 13.5699 19.8155
1 22.6928 6.0002 28.1022
1 17.1494 26.8078 19.3735
1 24.029 2.3982 28.7341
1 9.28498 3.65386 2.30857
1 4.28049 20.8521 19.4431
1 4.34336 13.472 25.5075
1 29.2743 29.7588 3.03681
1 4.74838 25.1243 11.7784
1 7.92407 10.9402 14.985
1 15.1125 7.8626 17.7871
1 16.2722 5.74473 27.4519
1 23.3988 2.21931 22.1702
1 26.4152 17.3885 16.7484
1 11.8959 29.302 11.1323
1 20.2363 20.9919 21.148
1 4.58156 27.5588 28.5528
1 4.30671 26.4144 4.58101
1 19.9555 27.1741 25.3785
1 28.1294 6.13185 24.2396
1 1.72033 1.32339 3.34421
1 28.5436 25.3412 29.1111
1 18.9467 7.94421 25.7198
1 25.2096 30.2394 20.3691
1 18.8491 6.63584 4.19391
1 11.6628 6.81201 7.58223
1 0.607934 7.85193 23.54
1 10.9269 21.6713 10.5447
1 9.16888 10.0048 22.324
1 12.1393 4.01976 15.9199
1 23.3158 28.479 7.05579
1 14.5638 21.8095 7.16802
1 13.4441 15.6753 26.1764
1 23.7083 12.9094 26.2502
1 18.3655 17.2797 9.07359
1 2.06668 8.0228 5.72301
1 22.9032 2.48152 4.30978
1 27.1794 2.70262 10.5239
1 23.8635 4.61857 22.8884
1 23.1594 16.5975 1.66636
1 3.82532 20.7482 22.1448
1 5.30955 30.4195 29.6513
1 13.8866 18.3034 25.3411
1 1.42423 8.19965 9.31763
1 4.58499 6.50576 15.6316
1 3.73042 22.3499 3.70544
1 6.01709 25.0248 4.3143
1 12.2089 11.117 30.3178
1 24.9451 15.8503 4.40711
1 10.418 8.40122 23.1088
1 4.98156 16.5258 28.5379
1 0.689675 3.28804 16.7321
1 10.716 26.9957 2.45974
1 0.207019 15.134 1.2495
1 21.5238 0.210217 12.869
1 19.5012 24.1259 9.8532
1 14.1863 4.20699 7.66647
1 24.75 27.4412 0.201186
1 27.9419 0.465891 17.4194
1 25.907 21.3047 16.6868
1 10.5554 23.2868 7.26296
1 28.1432 25.3463 4.77706
1 25.4367 5.00996 11.3763
1 2.13514 12.3425 10.1373
1 27.3209 26.6766 23.7588
1 8.61755 25.7333 17.7893
1 28.2263 19.5007 13.6616
1 3.54019 17.1067 4.19386
1 7.16511 3.66981 4.92564
1 27.0153 28.8673 2.3818
1 11.7035 14.4112 26.4373
1 19.4664 4.19175 30.0742
1 21.1561 13.4596 20.2638
1 11.1983 2.51445 11.7271
1 30.4212 28.9917 24.0539
1 6.71795 0.344977 13.3328
1 7.95718 27.4311 20.5625
1 3.0138 16.9036 19.3858
1 18.6508 4.42369 14.9603
1 11.4921 30.0984 30.4676
1 6.83654 17.8977 19.5424
1 17.5833 25.5483 3.17891
1 9.39339 7.82031 24.0318
1 17.9039 8.93086 12.5265
1 16.762 6.79113 21.4619
1 25.1647 27.2025 2.45997
1 20.6424 18.0729 8.08722
1 24.2099 28.4761 3.16287
1 2.01998 27.45 24.0637
1 29.2343 2.97212 28.5375
1 3.20246 20.206 0.986463
1 16.0261 19.5273 1.14803
1 27.3159 5.30376 13.122
1 11.2598 11.1715 10.6761
1 29.5283 23.6755 25.8783
1 13.2328 22.5405 1.77886
1 14.8562 17.3387 16.6185
1 30.4431 8.38239 6.54484
1 19.7897 7.11135 17.0147
1 6.28787 28.2896 21.2912
1 15.357 11.9709 26.945
1 17.2315 28.2942 1.24206
1 9.6952 14.6634 20.4665
1 22.0898 23.8314 20.3077
1 21.918 12.461 23.5377
1 21.8587 28.7861 3.76028
1 21.5693 22.5214 29.834
1 26.4471 6.79907 6.56492
1 19.8273 15.4886 23.8985
1 21.9578 6.02602 24.0444
1 15.2127 5.2912 24.6606
1 8.12104 5.63657 0.125432
1 2.93045 12.586 21.374
1 1.04249 3.23045 0.908163
1 1.40259 1.1302 21.3656
1 29.2742 4.42242 6.85129
1 29.8459 23.4301 14.1732
1 11.7167 28.4271 9.70479
1 9.46582 19.4054 28.1253
1 14.3258 28.1072 27.8447
1 2.47021 29.8034 22.9987
1 16.682 3.46346 29.4275
1 3.04756 19.6206 28.4829
1 18.8791 1.27529 7.31946
1 22.7627 2.8884 25.5693
1 4.73746 24.1532 29.8658
1 13.3818 0.869932 27.4444
1 28.7551 7.86091 11.9251
1 19.6129 1.1881 9.73126
1 1.36801 6.82093 15.056
1 25.8715 28.5702 9.94129
1 22.9724 13.3477 13.6933
1 7.54718 25.2941 4.79829
1 23.5951 3.89049 20.5564
1 12.3536 27.5131 27.9355
1 14.5813 13.5541 30.1883
1 10.9546 29.8451 3.71428
1 7.1665 12.462 2.67823
1 10.1769 19.2824 16.4345
1 11.2527 6.63109 17.5035
1 17.8219 18.7832 14.0008
1 0.513492 12.9291 28.2117
1 25.3691 7.90565 6.53883
1 18.0383 5.88247 13.1601
1 23.3386 29.5005 18.2609
1 11.4534 24.1939 27.0705
1 5.35217 16.4846 25.6761
1 6.91151 9.11967 26.1132
1 9.27497 7.58063 11.9686
1 26.126 0.635739 5.71964
1 26.6939 25.9376 4.74541
1 5.91635 21.3696 8.91315
1 20.0844 18.9102 26.5801
1 19.5781 11.6548 23.9268
1 19.1917 29.4106 4.29575
1 30.1971 26.4764 11.6385
1 17.7891 24.6887 8.87228
1 20.2184 25.7931 30.1725
1 20.7863 29.865 28.6292
1 18.4303 8.18141 10.3339
1 9.36302 18.6318 26.7984
1 5.90991 0.63854 18.9503
1 17.2642 0.431772 23.7948
1 30.4711 12.3411 16.2027
1 15.5969 21.5472 20.728
1 0.254803 11.223 24.6919
1 16.4448 15.3035 29.9293
1 13.4087 30.2742 13.244
1 12.0356 8.46217 15.9504
1 1.87127 0.81244 19.0043
1 3.57222 0.546696 10.2538
1 24.3487 24.6146 17.3089
1 9.99636 4.33888 17.5895
1 27.8221 6.11536 10.609
1 1.27639 20.8332 7.4159
1 7.8541 2.47513 28.7922
1 24.3008 3.04315 14.5405
1 17.7755 25.4071 19.4258
1 11.4913 27.7845 23.7583
1 6.07577 7.89537 1.99276
1 13.2237 29.2327 17.7456
1 19.3096 29.4795 30.0159
1 9.18578 22.123 2.79708
1 8.70714 12.2783 26.965
1 3.17817 26.9586 0.713928
1 29.4008 29.4566 27.7607
1 10.0528 0.452966 12.4407