4096
Atoms. Timestep: 1280
1 23.1602 7.54907 5.18468
1 2.67691 27.3417 13.6388
1 6.1417 18.3687 7.55203
1 14.5417 23.3502 10.2916
1 19.8306 5.05753 15.2146
1 6.31008 23.8892 23.1299
1 5.74075 22.258 8.20546
1 27.5862 28.3197 18.278
1 29.0128 16.2941 19.9591
1 15.7714 17.0981 2.12345
1 21.5915 26.5448 18.738
1 26.6153 20.3418 15.2934
1 23.7177 20.9307 15.672
1 28.5359 20.8222 16.6462
1 15.2216 6.73387 9.46461
1 26.388 7.81278 19.4559
1 7.74714 18.5383 8.20423
1 6.47165 22.6984 29.5992
1 1.21737 14.8327 6.02949
1 9.32852 18.4649 21.0078
1 16.8076 13.1493 29.1693
1 30.2187 22.7265 26.4172
1 2.0136 1.11443 26.3714
1 15.8842 26.7095 25.3864
1 13.8505 28.9643 17.1197
1 0.697712 16.9154 18.4171
1 4.90987 15.2168 21.7906
1 4.20712 6.05019 23.2238
1 1.94122 30.4814 7.68626
1 6.10304 13.4568 20.1332
1 5.85544 25.4613 1.82303
1 13.2909 24.1247 22.1179
1 8.20909 9.53406 28.6793
1 16.7926 1.8165 1.36234
1 22.6775 0.648434 1.25858
1 11.2845 1.96741 24.4476
1 13.3156 8.74269 9.91775
1 3.11654 24.8657 4.42593
1 0.393974 5.92332 14.036
1 21.6256 2.19712 28.0465
1 29.2611 18.0723 13.1552
1 18.1127 18.7542 1.5157
1 15.0125 7.06363 12.332
1 14.6287 14.5852 15.9389
1 12.3785 9.77363 6.4858
1 17.4051 22.0465 16.4216
1 24.8244 11.7059 14.1379
1 11.2997 0.843215 20.4501
1 26.2756 8.95912 17.3081
1 25.4101 1.0694 3.36694
1 0.727341 4.33729 1.38193
1 24.4409 16.7389 29.9301
1 25.8935 4.10136 20.9476
1 18.1993 15.4258 24.403
1 24.9606 14.6291 27.1942
1 5.50105 11.4679 7.09965
1 29.2644 6.21763 18.8733
1 8.35364 4.07488 29.6424
1 21.841 23.0973 27.068
1 30.0229 3.55871 14.6397
1 5.69345 7.45208 27.4157
1 27.3145 22.3195 5.79103
1 29.179 9.43401 6.09437
1 20.3595 1.01187 10.7586
1 5.69015 6.0694 15.3194
1 21.8721 1.3871 17.76
1 30.0819 10.6761 10.5716
1 17.4544 16.184 23.3752
1 21.681 12.0796 10.4968
1 8.77475 10.3018 2.70086
1 27.3386 4.28426 25.7734
1 3.44091 3.22326 12.8872
1 15.4553 23.3946 9.20116
1 19.9606 2.87049 8.04582
1 30.3106 20.2837 13.7875
1 26.5216 15.4398 7.10945
1 7.63984 27.4015 9.3446
1 21.8725 29.4186 3.42938
1 9.83768 29.1017 1.80487
1 16.091 2.12005 18.2013
1 11.4564 15.4775 4.79975
1 3.98349 28.946 22.619
1 14.2168 3.32297 8.14249
1 11.1325 26.6471 28.5731
1 25.037 17.8169 3.05879
1 9.21336 7.97843 10.6296
1 15.3422 14.9555 9.75064
1 27.6103 29.1661 16.9681
1 27.1914 20.0187 29.6483
1 0.419558 0.0108638 29.2611
1 17.0493 21.2043 1.17876
1 13.3633 6.26578 23.3331
1 6.23839 29.6205 18.2584
1 10.8953 22.9624 14.5734
1 9.59567 22.2464 14.0243
1 20.7175 3.4264 18.605
1 28.2837 5.13118 21.8575
1 18.8226 20.7127 4.37988
1 0.750245 2.6078 9.34283
1 25.328 1.48314 16.0618
1 11.8326 15.3417 3.3817
1 14.7769 25.3549 28.7164
1 13.9276 23.306 13.5892
1 4.61926 29.9011 0.529977
1 11.3358 12.9762 3.0652
1 25.6087 12.8826 2.39193
1 28.4796 21.731 12.8282
1 7.12961 12.5071 22.2417
1 18.9603 2.92725 10.8265
1 22.1818 22.2312 29.0935
1 23.6336 0.313399 18.4434
1 7.76834 15.1309 7.24306
1 8.06979 19.8733 10.0587
1 10.4532 28.6196 11.5178
1 13.7376 25.5161 7.95214
1 28.2044 20.1085 26.3679
1 9.39664 23.5475 16.4295
1 2.6232 24.5452 20.2335
1 17.6079 15.0508 12.9548
1 28.7129 17.6004 11.9858
1 16.4601 18.8112 4.18869
1 0.958551 24.6624 6.66665
1 28.5162 12.4025 25.737
1 3.72118 3.86454 7.53738
1 28.6118 18.2575 26.6573
1 27.2096 8.84292 18.4519
1 20.522 27.7956 5.0425
1 24.4078 28.6292 11.5514
1 20.8043 30.0188 20.6032
1 18.8823 23.914 20.5769
1 27.8732 5.35292 29.3626
1 9.4127 19.8963 13.4044
1 11.1974 1.29449 17.0053
1 14.4584 13.4684 29.9104
1 12.7886 13.4169 13.5122
1 11.5802 6.60111 27.0935
1 12.4928 0.821084 14.5348
1 20.8517 16.0596 6.10146
1 23.1308 11.6931 28.7138
1 21.9193 23.7991 29.4065
1 18.3225 18.1288 11.3452
1 15.1818 8.97046 13.5093
1 15.2975 11.3759 1.96679
1 12.1385 2.43412 0.22665
1 10.4769 8.39939 28.3201
1 11.9286 17.7373 25.7575
1 27.2688 29.7795 13.1524
1 2.78958 27.3659 12.1637
1 17.9956 25.1234 10.124
1 8.6315 8.85998 12.8738
1 24.4085 18.9267 6.75287
1 22.4702 3.89951 1.45002
1 19.6457 28.0658 22.0703
1 27.919 23.1286 25.196
1 5.94141 13.5165 8.33121
1 8.13502 11.0978 3.45414
1 30.4427 21.9099 12.0163
1 5.26165 10.0975 12.8062
1 20.8388 5.90172 11.6132
1 25.7124 9.27415 21.4165
1 0.366159 2.82 29.8082
1 19.9654 23.4666 0.885002
1 8.17573 9.44384 14.2671
1 20.6295 23.475 25.9018
1 26.1927 5.98413 11.9768
1 4.70541 6.48206 17.6764
1 2.54058 5.92331 16.0922
1 6.76397 28.2894 30.0691
1 16.0053 8.03592 21.0952
1 10.2823 2.22212 12.5257
1 28.1333 10.3173 29.6589
1 18.7114 22.5834 30.4203
1 19.8749 13.1737 20.7041
1 1.52105 7.13265 10.7822
1 2.68284 20.6136 28.3005
1 2.20406 22.5253 7.93952
1 0.959461 28.6535 26.7002
1 16.8157 28.2035 21.9904
1 0.61632 11.4752 25.9756
1 3.66503 10.5 25.6406
1 5.97702 0.672063 7.34611
1 8.04893 22.858 16.2306
1 24.7587 17.9619 8.87192
1 0.0782677 20.4519 27.8765
1 19.2021 3.51102 24.4269
1 10.3652 6.27926 27.1143
1 12.9748 10.9125 6.08731
1 12.967 4.23665 1.81865
1 18.8694 4.54439 19.7731
1 10.6991 4.65638 23.5662
1 28.9389 13.1249 16.8673
1 2.10398 20.5254 10.817
1 13.5232 16.9869 19.0526
1 13.1678 7.77861 14.3525
1 22.3969 21.3934 7.63062
1 15.8618 8.32574 10.1418
1 11.7686 23.6252 16.8182
1 26.382 21.6817 19.0056
1 9.97687 19.5409 1.45369
1 29.524 21.5271 20.495
1 5.9812 9.89702 10.3429
1 16.3434 14.1559 28.1913
1 1.96268 21.3133 8.29946
1 12.1502 4.58403 11.0738
1 29.7913 19.4491 4.57307
1 20.5914 28.203 0.0238972
1 16.1793 18.0498 17.2136
1 0.175743 1.73113 20.7257
1 8.37717 19.1029 17.7679
1 27.9043 6.50527 5.87987
1 21.8291 0.501747 7.79623
1 29.7717 17.768 9.45874
1 27.7944 14.0138 27.7226
1 12.7666 10.1604 17.0822
1 14.8021 9.35678 19.3487
1 28.7084 15.7765 8.16671
1 5.41505 19.7324 19.5697
1 7.53624 6.73119 25.776
1 21.058 14.6741 0.634248
1 25.8963 23.1718 8.90487
1 30.1906 21.0548 1.917
1 7.68271 18.674 9.77736
1 16.5696 29.3914 15.6332
1 10.8189 26.1106 0.897413
1 28.7206 15.2267 3.03783
1 12.305 15.1846 15.9524
1 30.1643 1.57176 25.2832
1 27.1682 15.7492 15.6024
1 9.41419 15.2911 22.7924
1 10.1732 2.81092 0.201974
1 20.0205 26.7935 8.15836
1 25.3997 21.6964 9.16111
1 21.9841 7.44465 29.1298
1 0.62068 12.7148 0.713401
1 19.2412 28.3194 28.1473
1 16.0222 16.0349 18.6427
1 8.12724 11.9484 12.7947
1 25.7151 9.36971 22.9097
1 7.12687 10.2702 28.6384
1 6.67181 8.73929 16.701
1 11.8978 20.4697 3.09127
1 11.5373 17.6816 5.18519
1 4.64923 25.9009 20.0386
1 28.191 26.1207 16.5618
1 21.2518 20.7357 4.54219
1 4.44852 8.62791 3.7017
1 10.6076 20.2297 5.3781
1 28.6917 22.6584 0.593547
1 27.8703 14.8471 12.4087
1 11.2047 24.6253 23.2568
1 18.8336 3.94719 17.6444
1 9.61786 5.66519 25.9419
1 8.78228 28.9356 18.9918
1 15.8791 7.49728 18.156
1 4.10546 10.9372 4.26725
1 25.3423 26.6772 24.3432
1 25.0301 25.5955 0.582764
1 1.06556 17.8268 12.6846
1 0.871877 16.3232 1.76655
1 7.93182 8.93848 24.1295
1 4.87937 12.7783 22.5397
1 1.3573 8.89929 16.5978
1 5.61313 30.4139 17.2093
1 13.3508 5.60862 12.7014
1 20.7046 24.4302 30.2385
1 23.8327 29.8009 28.1198
1 21.1594 1.26311 20.3373
1 4.57996 0.691244 28.0341
1 10.821 3.72954 10.7237
1 2.56086 16.6997 27.5289
1 27.0851 4.09367 3.3959
1 13.8472 30.4895 22.2171
1 20.1989 27.5229 20.7737
1 15.4871 19.6996 0.467371
1 11.4857 6.89886 20.4028
1 9.58415 24.4491 26.276
1 9.45675 3.4194 21.2882
1 19.177 30.5376 14.9917
1 29.77 8.24343 13.5136
1 16.59 29.4648 0.191028
1 2.92169 17.1106 25.4204
1 1.58882 21.8647 16.1505
1 0.912791 8.03761 9.98621
1 18.3614 26.7823 30.5407
1 23.2234 9.57219 6.55007
1 28.6587 24.3676 28.3624
1 26.7892 22.864 7.7471
1 21.0899 3.66974 1.22188
1 5.77397 12.6759 14.3288
1 28.6656 12.2489 20.2781
1 6.13259 25.7302 19.9375
1 14.2231 10.4997 26.5437
1 2.14889 27.5955 28.8264
1 9.44542 7.22666 27.8739
1 28.8448 21.3913 4.04069
1 17.5858 24.6456 13.5044
1 15.4155 7.36874 5.83594
1 29.6135 10.5066 23.8452
1 20.6499 3.19204 9.31112
1 13.5519 9.14382 17.2925
1 3.50581 29.9778 11.6343
1 10.5953 19.5455 11.4447
1 21.9443 23.8593 7.16905
1 13.871 15.0053 10.1998
1 23.2143 24.2184 22.375
1 10.5302 0.57594 9.22271
1 11.2975 29.0438 14.5678
1 8.84511 6.90567 11.7477
1 18.9975 23.6106 15.658
1 3.65434 14.8793 17.0159
1 3.75679 19.9145 22.4977
1 13.5704 11.6179 11.4024
1 11.309 9.8306 4.45922
1 6.04079 29.4732 15.8016
1 28.8033 26.693 11.738
1 6.6023 10.3529 5.33556
1 28.6423 26.9126 6.03505
1 26.8171 9.5427 6.08481
1 7.05226 7.85389 21.888
1 28.2815 28.5985 1.90288
1 1.11219 10.1641 22.259
1 6.86448 10.0572 21.1835
1 21.7488 19.8649 23.0766
1 9.60964 14.4051 19.648
1 26.3594 18.8884 17.4464
1 0.137597 16.7246 16.0607
1 4.19205 1.47981 29.4042
1 22.1408 9.99321 29.3018
1 3.91619 29.4141 6.61891
1 0.232943 8.25177 24.4471
1 1.40834 23.1604 14.1973
1 10.6293 29.4309 7.40557
1 2.59538 11.1877 22.3592
1 29.524 9.17681 20.6717
1 27.6686 10.8386 17.1646
1 28.4889 28.3973 19.3892
1 13.0757 22.9254 19.9252
1 15.8695 19.6471 27.6846
1 17.3728 26.1763 1.59724
1 2.38267 23.3731 12.9796
1 12.7232 20.29 16.138
1 0.812923 1.81326 29.0243
1 15.5036 3.22579 4.18576
1 2.19237 2.23398 28.4981
1 15.5418 21.5226 5.86816
1 18.5197 23.1102 22.512
1 7.62922 11.9214 9.93966
1 28.6222 25.0387 5.65542
1 6.44653 3.84108 12.8253
1 13.3389 5.72011 1.82678
1 10.1068 25.8352 11.7332
1 14.4251 30.0532 9.81361
1 24.2711 17.6025 10.2743
1 14.409 27.79 17.5968
1 7.15349 22.7218 3.95647
1 14.9499 8.60157 3.21914
1 6.4036 2.39197 17.9084
1 28.597 3.84955 25.0002
1 9.6593 9.56562 6.7844
1 12.3054 20.1843 20.3916
1 25.513 18.7568 4.07682
1 21.43 4.00635 19.7198
1 15.9154 4.49832 23.2438
1 16.5602 3.59022 8.84252
1 24.8531 14.096 1.64153
1 20.4499 17.0065 3.76194
1 29.6463 12.8893 12.1152
1 28.3707 29.1402 22.7086
1 28.9945 21.6493 11.233
1 6.9317 28.2316 25.9323
1 17.9025 21.277 8.59336
1 25.0569 23.7846 14.9476
1 23.3704 29.2603 2.73712
1 30.3926 23.9215 20.7416
1 18.3803 26.6876 16.955
1 25.6153 22.7639 18.0899
1 7.20324 20.5284 7.41617
1 17.54 22.4799 29.3708
1 26.4957 21.2315 16.4265
1 20.818 12.2129 3.63819
1 18.4626 19.642 6.2707
1 16.6943 4.94957 4.70004
1 7.15959 15.4892 12.3405
1 7.96486 15.7565 23.6123
1 14.8544 20.8989 20.3493
1 15.0426 3.5441 25.9925
1 4.7742 23.5746 24.806
1 17.4803 28.0727 9.26423
1 11.4479 2.92638 9.57544
1 26.5729 28.603 30.0317
1 4.95803 5.73342 12.3652
1 25.7909 25.8536 11.0906
1 27.7201 1.64945 11.3303
1 8.61966 26.4269 7.06243
1 27.5622 19.8426 20.2464
1 9.91912 3.87993 29.683
1 11.5187 14.4551 21.3827
1 29.8804 29.8989 9.08332
1 28.449 0.169458 10.7798
1 19.3279 8.55534 12.0824
1 23.3087 12.651 16.8162
1 30.5506 6.73223 15.4188
1 27.524 16.3569 7.51022
1 25.72 10.0034 14.9252
1 8.31903 14.537 16.5851
1 23.2969 16.4307 22.9237
1 26.897 0.369216 26.7679
1 4.88798 25.4216 18.4269
1 11.6439 30.0749 16.4255
1 2.23567 28.6939 2.50693
1 25.1685 16.0039 17.5661
1 23.0853 6.68735 22.9159
1 15.4792 9.50439 25.6572
1 29.9853 26.704 12.8268
1 17.3445 25.418 21.4796
1 19.1171 3.89759 4.36757
1 25.723 16.2443 20.2514
1 15.2511 8.24426 29.1325
1 30.0329 16.0779 2.87566
1 8.33565 22.0717 26.766
1 6.59521 17.2731 28.964
1 9.17269 29.8854 21.7997
1 9.29105 14.7968 27.0795
1 2.79938 10.8175 0.39337
1 3.66464 5.54358 10.344
1 20.701 29.1759 19.374
1 29.6779 4.62844 3.48951
1 15.5549 27.6728 21.7415
1 16.2946 23.4675 19.772
1 1.95512 29.8431 16.6696
1 20.8892 18.4059 12.6203
1 19.9458 6.64671 7.86973
1 28.5457 14.3142 8.27762
1 14.0842 12.2389 22.9064
1 28.1028 12.0901 2.54657
1 6.54403 28.7595 7.82765
1 16.0361 29.9171 29.1722
1 11.3516 21.3612 12.8405
1 29.3933 20.6663 29.0239
1 15.775 26.9949 29.4263
1 10.841 20.5073 6.6418
1 25.1907 9.29142 27.5526
1 11.7677 24.9895 9.69867
1 21.4105 22.1444 2.60733
1 28.7164 20.1345 10.8683
1 18.2545 20.1624 14.6386
1 29.4621 29.0117 2.1891
1 8.49068 16.0248 27.4927
1 27.353 25.9856 25.4892
1 9.75258 5.69894 14.7973
1 27.6613 20.3442 0.909247
1 4.13252 0.223823 1.81329
1 3.39813 4.77453 15.6461
1 10.4972 25.7907 29.5839
1 2.0585 23.9126 4.55857
1 12.7361 25.0728 23.1303
1 6.35253 2.83726 3.77896
1 4.35106 21.8711 9.899
1 13.097 22.1264 13.8964
1 11.2113 14.3652 2.56423
1 3.72121 5.98724 11.6519
1 22.4001 4.42195 10.2379
1 20.7155 20.6753 13.9812
1 27.2717 8.36127 12.7962
1 14.729 6.67772 4.63856
1 26.7336 25.7613 3.10511
1 17.9198 22.1523 9.7154
1 25.4044 11.7125 22.3274
1 11.6537 2.77688 15.6023
1 0.808559 0.941702 8.12818
1 15.6371 12.7496 30.0112
1 4.67803 11.3394 14.333
1 20.7239 29.9114 5.72521
1 12.0142 27.6651 2.50931
1 5.95808 6.55058 10.2227
1 21.3203 9.13981 21.1402
1 11.531 7.42623 0.243789
1 3.7804 27.1178 6.54079
1 6.68398 5.63667 8.02905
1 15.6818 22.296 1.57446
1 17.2871 10.1018 20.2181
1 11.5044 28.3914 18.121
1 20.7046 8.60395 1.78334
1 0.49609 0.943661 12.869
1 1.19438 14.4974 9.31793
1 18.6236 11.2814 8.66912
1 19.1842 8.70565 22.0745
1 11.2358 4.74154 4.36212
1 0.922691 24.5028 5.26449
1 12.8433 23.8724 27.6107
1 28.1483 25.4634 24.3068
1 20.5066 19.0869 16.2684
1 22.0274 14.7582 10.9006
1 5.84053 8.54765 4.48638
1 8.01728 3.66706 19.2552
1 4.26132 3.52716 8.68928
1 21.0883 3.6123 13.0785
1 26.5391 9.3963 27.027
1 9.04941 2.2391 7.92423
1 9.83778 28.5913 21.2248
1 3.31025 7.31585 5.31186
1 17.7562 15.52 9.18698
1 15.9464 25.4793 29.7168
1 21.2758 30.3274 8.9152
1 8.98032 3.15924 2.55192
1 18.6873 13.119 16.4091
1 16.7555 18.179 19.6767
1 18.5058 30.2059 20.3243
1 2.85693 6.30561 9.15224
1 1.09147 2.3672 21.6398
1 24.1518 8.49082 24.8649
1 26.2487 0.834158 21.0657
1 9.53972 12.4518 26.6491
1 8.14505 5.20363 23.8381
1 9.39784 21.8862 18.815
1 21.039 7.11528 1.14412
1 16.9151 0.696389 3.61082
1 9.93387 4.83126 9.6944
1 6.25249 13.5524 16.7735
1 13.8335 13.656 20.6164
1 27.567 11.3928 29.0796
1 4.20101 4.13716 9.9841
1 19.3055 21.9602 18.124
1 20.7079 7.17397 6.57115
1 5.08656 27.6946 17.4747
1 14.9 1.32972 20.1598
1 9.92999 7.16181 0.616072
1 27.8605 7.3582 10.7474
1 2.84691 22.8809 6.53919
1 26.0445 2.47655 29.7004
1 2.63266 18.1245 5.20186
1 26.5178 28.7512 28.2757
1 9.31359 14.242 12.0848
1 23.4996 11.3832 14.9045
1 2.54962 3.28395 30.2532
1 0.376755 6.92725 22.2412
1 23.9453 11.6553 30.0907
1 16.4908 4.44857 17.6191
1 13.6815 3.58731 22.6409
1 8.19552 24.5678 26.6548
1 1.70675 28.1357 14.4719
1 2.77737 11.4368 26.3265
1 16.4094 14.3242 13.9485
1 25.0123 24.3012 6.20078
1 20.0463 17.421 1.30545
1 14.0465 17.3483 16.1354
1 13.8758 29.2831 27.6232
1 9.64578 7.06999 14.2678
1 16.9476 20.5395 7.80247
1 4.50473 7.41272 24.4987
1 24.3049 27.8121 29.6039
1 15.4354 0.457939 25.8758
1 28.3817 2.90418 20.6427
1 23.3542 27.0396 1.53179
1 16.9322 10.4507 3.2862
1 2.71802 0.964614 9.73985
1 18.4713 21.5304 12.8943
1 20.5926 5.28345 28.1458
1 0.196533 14.1476 18.9927
1 16.2723 24.5044 5.82816
1 5.84477 11.8188 18.5966
1 13.2539 25.8763 6.64393
1 17.9841 24.7316 20.2746
1 5.39205 26.7879 25.5723
1 24.4044 4.91051 2.22198
1 13.2133 2.21166 16.0678
1 23.3917 17.6875 29.628
1 1.84047 20.606 24.6925
1 24.9947 0.507943 18.8072
1 10.7833 23.1176 24.1651
1 18.3441 29.2614 28.8472
1 25.2144 19.7495 22.9569
1 14.0109 19.9117 22.6243
1 16.1111 12.3943 7.42219
1 23.8665 11.2619 11.8832
1 14.8448 21.5495 18.9595
1 26.5755 8.1118 21.1134
1 26.6957 17.1195 1.29381
1 26.9223 12.3028 7.14959
1 6.35136 19.1841 21.835
1 19.0861 12.8577 12.3018
1 12.5062 6.81888 21.464
1 4.22988 20.8671 21.4681
1 16.7168 27.4339 28.4241
1 4.38968 23.0178 17.5813
1 26.7093 14.9483 20.6083
1 3.50979 12.3473 12.2541
1 4.67553 20.6387 15.8676
1 10.1388 27.0263 16.715
1 3.49869 25.9009 11.6859
1 28.7572 1.05116 25.0525
1 4.63363 27.5368 10.7161
1 3.11606 4.53154 30.2653
1 28.9301 0.990335 18.5982
1 18.7955 0.676707 13.7082
1 6.06592 26.1581 6.25349
1 27.7071 22.0542 16.242
1 15.9679 6.40503 8.0733
1 15.8636 21.7364 7.30304
1 4.98685 5.02758 14.6729
1 24.1017 6.41479 18.8138
1 22.9707 8.36917 13.78
1 12.1328 25.223 0.940872
1 19.9223 11.2878 22.3188
1 1.59099 3.58047 6.77472
1 9.27088 14.6043 29.4459
1 23.8789 22.9043 4.25213
1 4.44258 16.2474 5.23256
1 5.10806 29.0135 24.5355
1 20.4086 9.78883 14.1134
1 12.1665 18.3462 21.736
1 17.4011 17.3913 25.9033
1 20.9561 8.52514 20.0722
1 5.77164 23.7213 15.8177
1 1.93956 19.3394 10.0146
1 5.95837 9.19268 0.354237
1 16.6349 3.13906 22.369
1 10.9745 0.402754 0.923377
1 21.6953 15.0742 20.4368
1 26.8643 -0.119714 28.2026
1 21.0598 26.1692 4.97563
1 18.1274 9.90088 21.6072
1 2.76702 4.24719 13.5338
1 8.8572 13.0523 2.69734
1 1.20051 19.9172 0.180271
1 19.2546 2.42557 0.596289
1 15.4918 12.4467 3.94142
1 25.1605 22.9574 13.6075
1 4.55816 15.1597 25.3533
1 1.15728 18.671 14.8811
1 12.2824 6.98252 17.3736
1 6.5137 1.89453 21.637
1 15.7036 29.7865 6.345
1 29.4652 29.0007 7.99433
1 1.74934 10.3329 18.7201
1 5.84855 20.5352 18.2951
1 14.3628 2.79492 4.80397
1 9.55629 26.6459 13.1591
1 23.3421 14.2886 8.81593
1 17.8944 3.52022 15.3223
1 12.3474 12.5249 19.5316
1 25.4103 19.3066 9.11689
1 20.2141 9.60475 16.4923
1 1.90771 6.67812 27.013
1 9.728 0.323407 25.1191
1 14.8785 5.09283 30.0023
1 14.9777 1.26414 3.08401
1 5.449 17.7188 8.63972
1 25.3966 27.5481 25.8867
1 11.4719 18.9745 26.4518
1 8.32486 12.0959 22.1792
1 26.2916 20.2745 24.9994
1 11.2687 21.6418 10.6749
1 29.7576 3.01503 7.22384
1 7.08653 18.2542 4.38361
1 22.3524 18.5314 15.1867
1 5.42803 4.28533 29.0812
1 0.868168 20.7617 16.2244
1 9.08696 10.1279 16.1342
1 8.22615 5.37129 29.9826
1 29.598 18.6052 8.47636
1 12.2465 4.36666 17.612
1 18.2658 14.3394 -0.0526187
1 8.79389 27.8191 12.5615
1 3.41016 0.518703 7.25057
1 24.7506 -0.168138 3.96491
1 17.4475 15.1536 26.6787
1 1.93733 10.6267 28.1945
1 13.4754 24.8746 11.5382
1 4.00622 17.8454 8.71236
1 28.3518 9.18953 1.64861
1 7.76731 26.9888 26.139
1 8.02053 7.64489 8.64489
1 25.7545 12.844 28.7655
1 21.9018 15.3964 15.4597
1 11.1283 6.21804 6.53051
1 8.5419 9.86186 17.5138
1 3.54683 8.26621 13.0842
1 18.2118 22.6007 26.2528
1 16.7298 28.5792 16.8056
1 24.3526 8.49418 14.7766
1 15.6997 5.94195 13.0877
1 0.0387825 26.6192 28.1606
1 29.6204 12.9863 30.0373
1 26.677 16.1671 29.3387
1 1.52719 3.65219 25.0082
1 11.3752 6.92182 2.99182
1 7.81737 26.7215 23.5254
1 3.03514 23.4179 29.2233
1 10.6124 29.7361 13.4621
1 27.2427 3.0916 5.73568
1 2.51484 29.5765 21.0659
1 5.75513 25.1026 12.3239
1 28.2476 4.89408 9.18067
1 29.2124 26.8808 21.0349
1 13.3011 16.1257 24.7577
1 25.1024 7.77025 3.27357
1 7.39662 30.0625 0.388555
1 2.02065 23.4467 21.014
1 5.30961 23.525 7.39122
1 24.5868 1.4112 10.7229
1 23.5351 6.56504 10.7605
1 20.1924 24.5104 16.4673
1 16.1838 29.443 19.4259
1 6.02556 17.9056 14.3891
1 9.47094 21.6473 27.2443
1 10.6453 4.79748 0.344297
1 28.6774 15.2079 17.6505
1 9.87734 18.4365 19.7693
1 21.9091 1.45134 3.74345
1 7.43861 8.62318 7.61391
1 3.13241 5.30346 1.25675
1 27.8039 20.3454 24.9465
1 23.6758 5.8869 14.6452
1 8.18675 20.4311 25.035
1 16.878 4.63367 6.42093
1 21.8758 29.3693 28.9862
1 29.9135 28.3145 11.142
1 29.448 7.60547 15.9772
1 1.90787 4.77147 1.98545
1 16.4884 26.8677 5.25388
1 18.0238 2.55659 6.97101
1 5.40986 0.78688 2.43393
1 10.0021 5.41796 7.03466
1 1.18447 25.9799 21.6774
1 21.1983 17.1015 21.5584
1 18.3606 25.6006 25.4419
1 7.3728 2.59131 15.091
1 4.37187 3.43456 20.7014
1 21.2389 26.7532 3.39915
1 0.822879 5.8214 11.0835
1 3.53085 22.3272 19.7199
1 15.4272 26.0246 12.4597
1 21.8981 15.256 24.4575
1 3.45283 20.3472 1.4768
1 16.7619 19.8357 19.3933
1 18.4629 5.23564 11.103
1 9.50017 30.0468 15.4132
1 14.345 5.39008 4.92939
1 22.6097 11.5107 12.5836
1 19.6341 29.7855 21.4751
1 15.7059 11.7338 6.18938
1 23.0932 11.2978 8.55234
1 8.28456 0.270315 15.9046
1 4.49397 5.78009 24.7439
1 30.2871 2.61163 11.7551
1 6.1283 7.42409 9.16088
1 12.4985 5.56512 22.3505
1 10.3343 5.89006 3.5119
1 4.6034 2.79823 13.6095
1 24.4222 12.9782 3.48955
1 17.3793 5.67177 28.1624
1 13.1086 10.0849 25.776
1 29.7792 21.5547 13.2754
1 8.57642 17.017 24.0391
1 13.896 25.6035 19.3515
1 29.2833 7.12754 10.6768
1 18.7667 16.9145 10.7789
1 13.2728 24.0957 14.7097
1 5.67798 11.6997 26.1478
1 16.2615 8.88422 23.3263
1 23.9151 3.5992 15.9263
1 18.9324 13.6629 4.38468
1 17.7168 10.8754 2.30045
1 23.3342 2.831 12.7419
1 3.95395 8.62684 21.7418
1 2.2884 15.6665 3.54079
1 27.8242 11.6769 0.962796
1 16.5565 1.70374 13.832
1 0.506797 5.05588 17.1437
1 9.40733 6.90863 5.0186
1 7.87599 29.3036 22.9449
1 11.3287 7.53394 12.8812
1 29.8968 1.27431 7.23268
1 17.4703 24.3856 17.6583
1 12.778 12.105 6.88524
1 6.75057 7.18605 23.3738
1 27.0637 19.4832 1.90727
1 3.98329 9.36056 12.1681
1 4.70324 18.9178 28.3449
1 12.627 23.8698 6.25625
1 8.07387 23.2229 9.24006
1 6.57558 8.74445 5.51402
1 3.16005 15.1925 1.25369
1 -0.0418083 10.6866 9.09187
1 13.771 9.20351 29.3511
1 6.14576 16.8624 22.6581
1 24.5424 16.6745 25.0422
1 22.1266 11.7571 7.60182
1 1.55952 12.8262 17.0498
1 14.6894 2.99998 24.8058
1 5.00979 18.7536 5.49203
1 20.1624 0.265409 0.472189
1 23.8088 17.5367 26.1097
1 6.0091 24.949 29.8643
1 19.9929 6.53375 15.4849
1 20.7155 26.3088 28.0726
1 26.118 0.572119 12.9984
1 5.57181 1.17287 11.2505
1 5.08805 8.88072 7.74596
1 12.2392 3.78187 6.97316
1 12.0011 15.7854 13.7509
1 15.1958 11.112 3.20884
1 23.8584 25.4669 14.5627
1 20.5841 3.37117 6.72777
1 21.3479 8.41089 7.54883
1 10.9967 26.6226 13.7635
1 24.9451 4.36581 19.9288
1 4.08704 13.8018 22.1284
1 5.80318 2.28902 10.0577
1 25.3374 9.01341 14.0519
1 4.50672 21.3727 4.72733
1 11.3746 12.4485 1.77433
1 19.0602 1.8121 3.50146
1 14.2598 14.5841 19.711
1 1.55773 8.34498 20.6536
1 6.56892 25.6754 11.5499
1 20.3112 30.2611 23.8263
1 9.73766 3.17127 17.3071
1 29.8295 28.2345 19.1096
1 22.2756 29.3364 7.942
1 9.04273 12.4307 6.24556
1 28.0668 18.5239 20.1295
1 29.9663 16.2296 14.8472
1 27.4326 28.9803 6.41068
1 14.9 9.55894 16.3477
1 7.78716 24.0568 20.5515
1 17.1162 2.05505 24.8196
1 17.838 24.4022 12.1759
1 0.837069 27.8681 19.9742
1 3.77833 3.55042 4.20066
1 19.488 3.31371 28.7842
1 15.3564 10.854 24.5588
1 29.2999 17.7563 29.1127
1 20.4814 7.41791 23.6749
1 6.03348 14.7136 2.4211
1 18.977 13.318 5.97503
1 19.3065 15.0809 19.7262
1 24.4847 18.9575 14.048
1 27.7781 17.5567 6.7445
1 5.12862 27.3518 6.62733
1 27.7718 22.262 4.47356
1 11.2795 2.81457 1.56274
1 2.79743 13.8431 18.9159
1 25.8066 13.2946 6.62959
1 5.59391 15.4727 14.6426
1 1.79027 23.3447 29.339
1 10.1968 21.3836 16.3032
1 12.5124 15.6416 17.3723
1 6.34325 24.397 14.4675
1 3.59291 0.521882 15.1783
1 7.50196 25.8094 2.18486
1 19.3182 19.2103 5.23812
1 8.95755 20.4992 28.2094
1 8.31426 6.24869 8.70514
1 17.0601 9.94894 22.771
1 25.6484 14.1784 13.4429
1 3.52842 20.4825 4.58287
1 11.4928 25.8632 26.2965
1 29.103 18.1674 6.67802
1 3.18877 8.65002 6.06504
1 1.44409 7.0141 6.97614
1 13.849 29.7403 11.1031
1 2.91203 0.956421 11.0702
1 7.361 4.22321 27.6947
1 7.56891 7.97638 19.4815
1 10.4915 2.74792 27.7052
1 25.6398 4.8761 1.44977
1 8.45512 19.566 7.58808
1 11.3473 22.4191 9.4066
1 29.7764 11.5957 18.2783
1 30.2677 15.5341 21.9286
1 10.5497 4.21512 25.7043
1 7.61403 20.8397 28.584
1 13.6758 4.07701 26.5704
1 16.8859 25.9083 26.2918
1 14.5071 27.6502 9.53207
1 10.724 6.04741 9.88963
1 28.4983 0.843586 23.8905
1 13.0072 15.9165 9.36155
1 21.6874 0.396648 10.1577
1 14.5145 29.848 28.7234
1 21.3664 16.4005 26.6171
1 29.5552 1.08097 4.09772
1 28.6918 4.26504 14.6733
1 1.12227 5.93405 16.3033
1 28.6497 14.8117 1.49524
1 18.1315 13.8087 6.6248
1 2.63252 9.58975 16.6593
1 12.3586 11.3018 17.6314
1 9.20079 21.2931 17.5799
1 7.13611 9.08863 26.1246
1 19.478 30.2091 22.6928
1 1.1413 26.2361 25.8531
1 19.2979 28.5406 2.24702
1 12.7253 1.04087 22.4803
1 2.76487 6.71218 1.34816
1 2.79046 13.7408 25.4434
1 18.1151 8.03892 11.2842
1 0.671 12.5357 2.03931
1 29.5652 23.4015 1.44844
1 19.9524 21.7557 30.0565
1 17.9596 26.0683 7.33404
1 29.6319 19.5693 5.96035
1 17.9304 1.96332 10.6791
1 24.5472 6.2112 21.0725
1 1.57107 28.9989 1.29388
1 19.6407 4.07525 18.6425
1 4.38555 27.4946 22.1278
1 9.5892 5.34049 16.1238
1 20.3292 1.80996 30.0837
1 14.0677 8.98946 1.21254
1 12.628 14.5132 26.506
1 1.55919 7.85902 17.5152
1 18.6648 7.75321 30.358
1 2.73948 15.9588 24.5293
1 4.53923 25.672 12.9457
1 11.3948 4.2309 1.76429
1 16.5709 25.0139 22.7477
1 5.70531 5.23026 19.6084
1 17.4803 7.22349 24.8978
1 13.8188 18.2411 9.77268
1 3.30118 12.7283 26.2391
1 0.43702 18.1374 22.3559
1 2.03239 25.0301 8.79999
1 22.6251 0.793839 14.0215
1 25.1391 20.7096 21.0033
1 16.0339 28.1933 24.7853
1 4.26106 27.9142 11.9414
1 7.44281 23.7074 13.7315
1 25.2523 17.6756 1.75786
1 25.4714 5.55184 30.4221
1 5.85438 9.7165 29.2688
1 23.9346 5.58062 6.77635
1 27.4578 24.1036 19.3165
1 19.2757 18.6326 12.9626
1 24.2851 16.783 4.24002
1 6.71973 3.00783 7.77226
1 2.03435 5.66728 8.13463
1 28.8481 14.0459 23.6962
1 11.5224 27.1447 22.6888
1 19.8153 0.420797 3.44252
1 24.3203 20.8307 17.1191
1 8.72607 5.92457 7.199
1 2.31549 29.791 8.91313
1 19.0095 13.2883 9.65341
1 3.39156 20.8829 20.1283
1 27.2511 19.831 5.79536
1 27.9146 25.4401 8.06204
1 15.9545 9.00245 15.1278
1 9.72321 8.91265 11.8525
1 20.4854 2.23198 28.5964
1 26.0053 3.27648 5.0431
1 10.3049 4.54868 8.28069
1 3.38209 12.7646 29.0456
1 23.4318 27.3255 26.8931
1 3.3292 11.4631 13.3256
1 25.4903 14.2024 12.0589
1 6.66628 12.3651 10.7642
1 24.9416 7.63641 18.6313
1 14.5552 29.2769 26.3707
1 11.9432 29.7792 1.19315
1 22.1006 29.2999 20.9099
1 2.2005 8.05588 23.1288
1 11.2509 28.5553 1.81355
1 28.1114 24.1422 13.02
1 5.52796 2.57426 18.901
1 17.5135 25.1471 3.64226
1 25.5898 20.8744 22.1683
1 11.8893 5.09951 15.3986
1 24.0857 10.6492 2.12834
1 6.62902 5.43886 2.30571
1 18.6727 26.9129 13.9972
1 0.499244 29.7938 21.6413
1 3.93717 23.8707 19.9317
1 22.3081 5.45984 16.7213
1 20.3005 22.9241 18.7014
1 16.7983 10.5309 12.5673
1 8.58068 17.3464 8.17694
1 27.6771 18.9088 17.2408
1 5.85404 5.98647 6.96844
1 26.6522 14.2581 16.7285
1 14.1377 27.1368 5.90756
1 27.7613 26.0197 9.83899
1 11.8593 20.1116 12.6145
1 17.7364 6.34365 25.7376
1 16.2904 15.5893 28.8591
1 16.0606 21.7066 24.2786
1 7.73914 12.251 7.10417
1 10.4768 12.4903 18.1113
1 13.9296 16.3074 5.79133
1 13.207 21.5967 17.1623
1 16.6527 3.18867 0.847341
1 21.0467 7.53082 12.9256
1 30.6067 9.02535 0.263261
1 12.6548 29.9849 11.6769
1 9.01044 17.9182 18.5434
1 14.7706 18.651 10.8209
1 18.2452 13.5977 15.129
1 25.9836 1.76401 0.699183
1 16.5957 15.0573 20.8564
1 22.9589 20.9133 9.84915
1 1.28567 22.5655 27.2135
1 12.1207 11.1156 22.101
1 8.97919 2.18594 9.4167
1 3.05543 5.92494 22.4202
1 25.9582 6.39435 23.2686
1 11.9412 7.2792 4.21424
1 5.71451 17.2541 11.1167
1 30.4481 20.96 21.4307
1 5.83029 6.23733 18.5397
1 19.6422 27.3562 9.34863
1 20.5066 17.1127 23
1 21.7758 12.8391 16.7732
1 13.6583 2.39683 17.4629
1 11.9462 13.3543 0.556001
1 0.217401 9.50294 23.4522
1 18.2514 26.4307 21.4704
1 1.06267 6.2865 21.1311
1 30.5647 15.9048 19.5247
1 19.1994 11.3244 23.8537
1 7.85635 1.77302 22.3389
1 5.70749 19.5988 2.86134
1 5.17002 9.55299 1.40979
1 21.6911 25.6296 27.4214
1 15.4497 27.153 6.3008
1 12.5535 18.0245 19.208
1 16.6623 9.25008 26.4665
1 19.1038 10.7778 2.19591
1 25.3484 4.19429 22.3301
1 6.37083 14.5748 27.7179
1 13.2746 1.46579 6.52664
1 23.5401 19.137 5.74266
1 7.18204 15.2138 24.7358
1 11.9042 17.5673 11.5651
1 13.2877 27.9544 22.1535
1 9.85481 8.04688 18.7174
1 26.645 29.6947 5.34765
1 26.3905 13.215 13.9667
1 24.6342 3.30554 27.7048
1 4.29214 1.82648 14.9598
1 21.2308 3.17737 11.8033
1 24.5788 4.94537 15.664
1 27.8636 10.4599 15.7493
1 26.6382 10.5917 30.0083
1 0.56563 4.47603 14.4391
1 17.5192 18.178 24.7843
1 25.6085 5.50123 28.0121
1 1.43825 29.9258 22.8522
1 11.1237 0.42597 27.4485
1 3.66148 26.2085 22.5122
1 11.7837 27.6517 14.0656
1 23.5339 19.7195 14.7533
1 13.7763 26.1407 12.4761
1 2.54214 5.6503 27.9564
1 27.2165 26.6669 27.5582
1 10.873 28.2111 22.2607
1 28.0091 5.80399 18.6087
1 20.7975 12.4428 22.3539
1 8.09783 3.37491 22.0791
1 15.2548 14.9638 22.0403
1 23.6007 2.53027 5.29593
1 10.2214 5.41914 18.5326
1 25.8943 19.3915 14.2946
1 26.0358 9.08616 12.8003
1 9.66412 0.924205 23.6804
1 17.2941 5.32264 21.7846
1 5.41713 27.7878 8.12509
1 19.7505 13.1754 3.17727
1 1.31413 9.94859 12.5372
1 2.66713 5.33623 12.8947
1 14.5482 1.99591 11.7761
1 7.21253 14.5678 16.1185
1 27.408 12.7202 23.4575
1 17.8847 18.2836 27.0717
1 12.9864 15.232 7.99264
1 11.9753 17.1486 22.5552
1 28.5407 10.467 22.8533
1 19.7207 24.9949 29.0992
1 22.2458 29.7563 22.2664
1 1.03112 10.7272 19.9332
1 10.0235 29.0997 18.2739
1 4.5466 30.3882 4.55503
1 0.993802 7.31582 23.6381
1 13.6672 29.1764 15.6886
1 15.961 19.5422 8.10797
1 13.5652 22.7954 11.0259
1 19.7581 30.399 8.6911
1 11.4856 12.1123 7.80914
1 10.3654 25.7157 16.8432
1 27.422 21.4989 22.4261
1 28.278 12.9867 5.1116
1 16.6748 20.3763 3.22781
1 13.9621 2.46546 28.4348
1 14.706 25.7801 20.9099
1 21.9606 11.5477 5.33246
1 16.7003 11.4695 20.5697
1 28.337 14.5261 9.57695
1 23.005 15.2013 2.86359
1 12.8175 18.491 0.604372
1 6.59452 26.4501 22.9605
1 15.4558 4.65701 2.43374
1 8.15273 2.70209 14.0781
1 6.17547 6.9359 29.9004
1 3.80628 18.8215 14.305
1 2.2315 22.6608 25.0513
1 6.25171 13.8358 1.46891
1 2.98755 4.04854 25.275
1 0.431979 25.6037 16.0081
1 14.7869 23.5324 26.0985
1 14.3899 20.4217 0.715099
1 14.8006 28.2738 3.80412
1 8.64032 7.32826 13.1498
1 7.35025 28.3532 2.38595
1 10.7829 11.1908 21.6178
1 26.0789 28.4971 18.5042
1 28.862 16.5712 23.9209
1 25.8307 15.7596 22.9737
1 15.3738 19.3755 23.0387
1 10.7221 22.5468 4.02356
1 3.9795 13.9758 28.4164
1 25.769 19.1047 12.257
1 21.0581 0.895502 6.68999
1 18.1284 10.4172 13.2936
1 30.166 12.1398 17.2446
1 5.73126 27.9186 25.4026
1 22.5607 4.10985 7.67553
1 8.7494 25.6981 13.916
1 13.0901 25.6901 13.9209
1 0.989222 19.6999 6.70047
1 25.5649 26.6946 2.96025
1 26.6627 6.27205 19.5499
1 28.7604 19.7874 3.75917
1 22.9435 23.6644 8.93774
1 11.6285 27.7892 5.56833
1 4.0151 19.4572 19.3197
1 14.6864 11.5573 9.34235
1 27.2835 6.04802 21.1302
1 7.19158 9.2294 10.8222
1 17.4845 27.24 11.4988
1 27.386 11.9561 19.9267
1 23.5068 29.1892 8.38565
1 4.95917 5.33682 22.0954
1 17.8657 3.90187 8.87739
1 3.67784 3.44953 24.0826
1 18.6767 17.6388 15.8091
1 2.16135 18.968 26.4957
1 25.2 19.208 27.3084
1 25.6818 11.4389 2.03036
1 5.63485 9.39265 25.9667
1 5.29776 13.404 27.897
1 3.05142 21.7084 10.7125
1 3.64342 18.4858 20.3888
1 13.3925 22.713 3.1861
1 7.00078 27.2381 29.1358
1 11.3852 11.0661 25.8365
1 30.3911 20.7365 22.8973
1 21.6166 23.2361 23.3174
1 28.9673 24.8253 26.9506
1 1.50202 12.5998 7.77769
1 5.48988 20.0237 28.3746
1 27.5298 10.9635 3.44609