4096
Atoms. Timestep: 3340
1 0.945004 12.7079 21.4048
1 18.8251 2.64932 14.3855
1 19.4597 14.9332 25.5233
1 21.5785 13.4324 12.8319
1 0.108912 5.75773 19.5146
1 11.1504 23.297 20.9296
1 18.8142 23.7243 19.9068
1 24.9587 21.7211 27.5758
1 2.2471 6.41296 16.1913
1 11.6147 12.9769 6.99876
1 9.45999 11.7257 14.8759
1 4.37177 28.1137 20.1948
1 14.0515 13.2826 11.208
1 24.9413 2.8795 11.5483
1 2.86791 21.5498 23.2127
1 28.8736 18.5948 17.6939
1 22.1452 22.3701 27.0574
1 4.49967 26.0737 8.23013
1 21.1593 0.427486 7.25684
1 20.3364 11.9797 13.6275
1 4.13817 4.80282 15.3505
1 1.24534 1.52704 28.3005
1 26.857 4.54549 5.30986
1 10.896 29.4671 16.8455
1 12.9141 9.5151 4.32604
1 6.3619 3.91729 12.3457
1 18.6025 10.1327 16.0918
1 29.5387 2.07979 4.70691
1 11.1054 1.52157 4.10017
1 26.1998 9.43449 20.9702
1 26.9758 19.8611 7.40239
1 1.6827 3.25777 4.05148
1 19.1828 4.71546 2.43305
1 29.8431 7.4992 14.0984
1 18.5426 4.40405 27.2133
1 4.08467 5.34564 2.66102
1 16.9674 15.0589 14.7978
1 1.75106 0.971713 1.48884
1 28.3854 22.7929 9.02355
1 26.6144 9.86858 9.11737
1 1.86089 24.3324 7.93472
1 14.3417 17.1468 21.172
1 9.46877 8.163 2.01679
1 16.0466 13.3203 28.6538
1 9.02303 16.1955 23.5644
1 0.846395 13.7006 20.209
1 14.3114 29.0194 3.09644
1 13.1683 8.0047 1.35158
1 11.1398 14.0641 11.1117
1 1.00362 7.81067 27.2153
1 9.15071 15.4743 27.8272
1 17.2057 17.9341 9.03285
1 5.73356 11.2846 10.286
1 10.7421 27.9148 14.7228
1 25.4918 1.62986 18.2816
1 24.3615 9.77762 5.79259
1 0.272066 17.1485 2.24805
1 15.3891 15.8175 12.6003
1 28.5445 26.7333 22.2416
1 1.70872 8.0474 3.8532
1 4.98219 3.00037 18.2686
1 16.7767 13.5181 30.1704
1 13.5968 29.1563 17.8095
1 17.3946 20.3395 4.45778
1 21.4187 9.54408 23.2818
1 15.5775 16.5931 20.9455
1 20.1494 28.6564 6.7293
1 25.1949 17.5698 6.34395
1 27.5733 9.27501 2.43559
1 4.92819 28.2914 4.48918
1 29.3682 12.774 27.8791
1 0.889839 27.8381 8.25359
1 1.05945 24.877 3.25363
1 3.53243 9.50748 4.92335
1 28.6244 14.4585 9.75286
1 11.4963 9.09963 9.71274
1 24.3766 13.9577 9.03851
1 20.274 20.2631 10.2083
1 7.84324 24.6366 4.95625
1 0.970147 8.9346 25.0266
1 13.9384 26.1967 6.50373
1 12.3694 21.781 7.67222
1 5.70174 25.6954 30.3648
1 17.6289 1.06158 9.74174
1 18.8957 27.8297 13.8774
1 11.8341 8.24025 12.0276
1 17.7135 13.9126 15.2456
1 21.6896 15.0669 22.3827
1 0.842359 30.7452 19.8378
1 29.4384 1.85652 7.94564
1 3.62238 0.753633 5.24615
1 10.0435 7.92319 15.2422
1 26.3446 13.7751 18.0539
1 5.57617 1.4483 28.5388
1 12.291 2.94599 0.811564
1 4.40638 14.9163 10.8939
1 15.2368 20.0533 15.9541
1 26.6572 13.6337 13.9483
1 26.2055 25.0882 26.5451
1 11.0154 27.2894 4.23265
1 2.21263 21.5706 4.687
1 17.454 9.23806 24.9904
1 18.1953 22.293 8.89837
1 14.4427 11.0166 16.9441
1 24.6174 8.51063 25.9781
1 3.57143 10.8985 25.638
1 28.2935 13.6057 27.4268
1 12.149 16.2893 24.1794
1 7.89333 18.3593 10.3819
1 17.654 19.4928 19.4109
1 29.1572 26.3821 7.33848
1 15.9259 27.37 28.7832
1 9.48054 10.1517 24.7625
1 1.96626 10.3032 29.6755
1 11.851 3.13174 24.6042
1 13.7172 21.1497 3.90814
1 22.4342 6.49766 2.7182
1 19.1084 26.6767 5.81645
1 13.1993 11.4778 5.9349
1 15.0279 18.8795 3.52629
1 3.06339 25.8347 21.0388
1 6.64484 2.94021 20.9241
1 1.57672 16.0486 27.0235
1 14.0514 27.8048 8.67465
1 14.8908 22.475 28.4514
1 11.042 10.4792 11.7551
1 10.4079 4.37359 1.07184
1 12.3441 25.154 21.8029
1 17.965 21.1663 3.58013
1 27.9708 30.3932 14.3034
1 1.21259 17.4303 3.52268
1 17.1119 29.1151 28.6547
1 16.7987 8.63708 17.1286
1 12.9242 0.669346 2.34684
1 17.8778 12.3131 9.66566
1 8.96439 3.08396 25.3021
1 0.690782 10.0993 22.8392
1 11.3164 18.9188 25.0331
1 25.7481 7.23441 7.06059
1 18.0678 26.8183 14.6475
1 17.3472 14.7579 17.8591
1 2.72871 22.2429 29.6558
1 16.5024 12.5239 6.60166
1 17.1459 3.28218 25.8784
1 16.2744 11.8793 22.6604
1 3.11182 28.1182 22.2286
1 9.0682 18.6406 14.5783
1 10.9871 12.5928 9.06649
1 15.2357 25.2961 15.2659
1 10.1959 27.1745 26.9067
1 29.598 8.84356 5.24665
1 14.4598 26.1418 1.08782
1 17.1165 26.0217 21.7389
1 24.9544 3.54585 6.83089
1 18.3489 5.34215 19.3838
1 5.49986 13.3688 16.4953
1 6.91684 2.76349 0.12946
1 23.1684 8.60279 1.14228
1 21.0627 14.2176 14.0738
1 14.5731 4.41529 26.9758
1 15.2143 7.54142 2.30085
1 27.4723 8.97712 13.2826
1 7.44548 21.4802 24.5279
1 2.97639 11.9628 23.8314
1 27.6686 2.91465 0.135703
1 7.58759 29.55 28.3839
1 26.0492 4.25842 13.8682
1 15.6361 8.5691 29.0969
1 21.655 7.97954 10.5144
1 28.8188 13.9587 17.7944
1 20.7286 2.62502 8.03759
1 24.8813 11.3521 2.78486
1 14.4251 10.9704 29.6656
1 2.95631 8.88683 26.467
1 24.7456 1.63033 11.8897
1 4.92694 14.236 29.1497
1 17.968 21.4286 15.8752
1 16.9532 13.9818 27.3437
1 26.6675 29.5021 27.647
1 2.49129 26.6408 5.49672
1 6.25936 24.0784 18.2429
1 30.5438 1.3495 26.1347
1 20.0684 9.06911 20.532
1 21.5973 1.12372 10.394
1 9.86819 13.5307 26.9792
1 22.0177 8.95749 8.01431
1 26.9865 29.1874 17.4555
1 22.6013 27.2578 10.255
1 22.8213 10.566 10.0611
1 24.2353 1.01922 22.0699
1 17.4194 15.7021 29.8172
1 9.24334 12.5114 3.86497
1 17.7716 13.5026 10.6371
1 24.1605 7.30455 4.48189
1 18.482 20.6159 24.5368
1 2.06936 15.1411 17.0544
1 2.48112 7.14984 25.8443
1 11.8188 8.1184 6.25741
1 8.94844 9.05218 11.2768
1 3.90081 20.1163 12.0285
1 16.5381 13.8996 17.7039
1 30.2693 18.6216 17.6748
1 14.7213 17.6777 26.8143
1 9.33984 3.9429 26.444
1 2.13594 4.91507 27.1402
1 13.1669 4.49702 13.8964
1 20.0035 26.683 1.14959
1 13.8689 13.4207 7.71077
1 2.58611 19.4109 9.24229
1 30.5026 25.2401 25.7633
1 28.5614 12.821 14.3026
1 19.4159 20.8686 14.2281
1 4.39044 24.6759 4.47071
1 28.935 19.9817 27.9174
1 12.2206 7.35501 27.5711
1 26.4199 8.31738 5.54939
1 12.1567 8.51095 8.72177
1 3.41002 16.5364 15.4135
1 17.0701 29.7309 9.43711
1 13.3933 21.0236 6.56204
1 11.592 8.80249 18.564
1 8.03996 17.5712 28.6698
1 14.5185 20.8769 12.6895
1 0.998475 5.90897 11.2396
1 4.16598 13.1993 25.5379
1 15.8475 19.5636 26.7836
1 14.9353 18.9179 26.0669
1 1.00473 18.84 18.9549
1 17.042 9.54478 2.67521
1 2.42256 8.14595 17.8784
1 14.2467 14.7464 10.7373
1 23.1775 4.73881 4.93703
1 17.0798 27.0496 29.4649
1 20.4642 8.71576 18.8199
1 3.90115 2.25755 12.2719
1 18.0703 3.81026 2.24487
1 6.63108 27.2593 28.2234
1 11.9004 24.4494 20.4014
1 6.40662 25.0415 13.1667
1 24.5369 14.4496 28.2415
1 10.1045 27.1076 10.1079
1 28.2708 6.82029 3.51233
1 24.9379 27.4055 23.3369
1 11.7608 29.7008 20.832
1 30.0193 25.2323 19.5111
1 19.3 13.7091 1.35052
1 22.1954 17.1633 10.6454
1 26.0915 13.7219 23.4769
1 3.71326 7.76258 12.1817
1 2.32772 23.6973 24.0071
1 8.37442 8.61479 4.43283
1 2.67948 16.8294 20.6056
1 17.9242 28.2457 29.2431
1 25.1793 2.81245 29.373
1 20.0568 1.51026 11.1786
1 19.6598 27.1497 16.6282
1 3.04459 6.09022 26.7603
1 19.3986 9.39712 14.0983
1 7.56316 29.4772 13.8842
1 20.4345 7.8449 15.0434
1 18.3876 11.5275 7.01161
1 27.6733 19.6393 6.35912
1 18.9133 29.9936 30.3074
1 7.4082 27.366 17.2982
1 17.2624 4.0897 7.67545
1 3.68323 6.4494 12.7142
1 11.5157 0.291996 11.0583
1 13.5121 14.2793 5.27052
1 24.9176 27.026 3.09387
1 16.5963 26.3029 1.93293
1 23.5357 8.38056 15.2112
1 5.0793 1.70244 12.8393
1 8.55955 7.03852 2.09055
1 27.2674 11.6764 10.6936
1 6.24786 4.15987 0.566344
1 28.1379 10.6924 29.1022
1 6.20772 12.6151 14.2303
1 14.3121 6.99085 7.76344
1 7.50653 16.0263 0.461429
1 19.8172 21.1632 26.6924
1 6.77167 21.6159 10.7993
1 15.5076 12.6929 11.1971
1 29.0732 13.8571 13.304
1 27.4173 4.43302 14.1128
1 2.50018 7.377 9.93712
1 30.2725 28.6445 20.563
1 19.2849 0.131966 14.1479
1 13.9009 23.2901 11.8516
1 11.2144 23.5951 10.9102
1 19.1259 20.807 29.6618
1 28.6684 4.22939 8.48299
1 5.66574 0.77811 20.0398
1 10.0611 24.0786 29.3103
1 23.6966 7.46531 25.6626
1 16.6927 28.5582 14.4265
1 1.06941 2.71759 6.08081
1 21.0336 2.21848 20.2235
1 25.748 15.133 23.477
1 11.075 24.7623 3.15042
1 28.5175 11.0628 26.6951
1 30.1642 28.6577 28.0439
1 5.15095 11.7386 1.97864
1 6.38378 28.4787 27.9262
1 11.9043 22.5054 23.666
1 18.266 14.4119 28.1963
1 9.35522 16.2768 17.7556
1 27.029 18.6341 16.2026
1 14.4355 14.2247 20.6801
1 26.1245 1.66043 1.92908
1 1.72814 13.8417 7.97441
1 19.2974 18.1531 19.5785
1 28.7093 16.5924 7.06354
1 3.4443 6.12562 18.2648
1 8.99889 26.468 3.70057
1 25.9025 14.4983 8.81704
1 23.4876 1.7888 28.4127
1 12.7679 29.9971 14.3191
1 14.2341 10.3215 8.75653
1 14.9584 22.6159 17.3379
1 1.38968 29.619 11.2972
1 14.7649 13.7047 14.5253
1 15.3778 11.0975 13.0725
1 15.803 11.2437 21.3441
1 0.661752 0.648447 11.146
1 13.941 18.4005 7.35402
1 21.4695 17.6983 5.54912
1 2.10537 15.2483 28.8479
1 11.3007 10.6795 7.58827
1 24.1293 23.1249 14.8199
1 28.8279 12.9104 4.811
1 24.2336 23.2995 2.31815
1 25.1724 27.7091 7.54291
1 7.01263 11.3566 29.2342
1 15.163 12.8686 23.0461
1 18.5007 14.8046 9.82846
1 30.151 25.9379 30.3129
1 25.8497 23.3483 19.9766
1 26.5969 25.6627 29.3379
1 9.541 3.48483 0.302789
1 3.10507 13.9475 25.1496
1 10.8592 28.263 29.6946
1 12.5849 24.2706 18.0017
1 10.5057 20.7708 17.0197
1 23.7378 29.0271 13.4646
1 9.41272 1.59839 26.9295
1 20.5145 26.159 14.5844
1 29.374 15.9157 4.83489
1 13.2621 17.9578 14.5298
1 0.672362 14.5929 29.1331
1 1.5479 18.5912 21.2817
1 0.288214 6.09753 26.5265
1 10.2575 24.0637 18.611
1 3.30665 0.773614 10.2688
1 28.6778 5.79001 26.5756
1 3.41707 11.3109 26.7546
1 26.8325 12.754 17.0669
1 6.66257 29.7465 16.3174
1 5.90732 1.16225 10.3099
1 6.13228 2.28102 2.18676
1 24.6605 15.6864 4.05745
1 14.853 18.8354 11.4256
1 19.865 9.05809 3.19825
1 5.26123 6.98401 29.2211
1 23.2362 17.1652 3.00579
1 13.6063 19.0869 12.3875
1 9.08571 26.3924 22.0476
1 5.83949 1.66478 0.758791
1 27.013 13.7788 3.21084
1 8.01321 11.125 19.9263
1 1.63861 5.45839 6.50274
1 7.14198 23.7944 7.17279
1 29.3728 3.52966 11.5992
1 11.1928 17.8136 7.86754
1 15.6094 2.83081 10.0337
1 29.652 6.85252 15.2808
1 9.13257 28.6798 5.5851
1 27.0188 10.2509 13.7367
1 10.3147 22.3434 23.2394
1 26.9971 17.0405 4.67698
1 24.6754 7.31421 15.3601
1 27.0374 15.3631 30.071
1 22.4297 8.44376 9.24558
1 26.4877 13.9626 5.41851
1 25.197 29.3184 12.8729
1 18.1445 16.9254 1.38855
1 12.1942 6.81374 14.0273
1 21.4462 27.7395 29.7876
1 2.57541 1.40769 28.3319
1 27.7953 7.50958 21.5133
1 6.5158 18.6067 7.7912
1 16.7375 2.6242 5.69281
1 22.027 8.66908 4.25395
1 4.10549 21.3414 23.9422
1 11.7315 28.3656 23.1862
1 19.5109 10.8678 13.7345
1 12.1602 28.6832 1.43554
1 3.5931 18.3679 6.62425
1 22.2682 24.204 6.13159
1 30.0121 16.7381 19.9683
1 1.06123 25.7471 0.79817
1 17.8329 24.6522 20.2902
1 26.9774 6.2609 28.4371
1 25.0816 17.1572 22.1362
1 19.3934 29.0072 10.7122
1 20.5404 29.1077 15.483
1 11.7708 25.3022 5.9605
1 8.17924 24.7089 6.48534
1 18.047 15.7593 28.7123
1 7.1714 8.13602 3.9317
1 12.4262 26.7433 21.6482
1 10.7821 7.80226 21.8664
1 3.07577 26.4091 2.40839
1 0.700633 6.69443 24.0303
1 5.26123 24.5621 10.816
1 16.0531 20.9988 26.7879
1 6.95577 8.81765 29.1132
1 2.84043 4.20887 18.0439
1 1.38563 30.6528 22.1417
1 25.3918 9.35241 24.9026
1 1.17837 16.0261 16.5443
1 14.521 9.79178 2.1098
1 10.3464 1.08148 29.7541
1 7.59129 7.39951 19.9957
1 2.85553 5.94607 20.0589
1 5.19525 8.22103 12.4012
1 29.6606 27.4668 12.9744
1 0.597035 9.69483 5.71636
1 10.3214 20.1053 18.0899
1 23.071 13.1843 23.2929
1 3.77561 21.8805 13.0101
1 29.7057 25.821 21.9469
1 15.0004 25.9652 13.6541
1 1.38164 8.64651 15.443
1 -0.229849 12.7468 3.58679
1 2.49152 15.9737 21.8081
1 28.7707 24.2593 7.23962
1 8.58599 28.5587 28.4326
1 11.4921 25.2175 24.1934
1 29.8341 5.12774 21.4909
1 12.5254 12.3297 12.8946
1 2.18933 0.624803 13.5754
1 8.35993 6.85859 29.9476
1 6.4636 25.7599 15.4019
1 19.7525 17.6695 24.8257
1 8.26716 4.92267 28.6594
1 22.8676 14.5689 23.2032
1 3.59924 15.4389 16.7199
1 6.17925 28.9916 13.8422
1 26.2442 11.0816 9.82375
1 16.0287 20.2318 6.38166
1 24.9101 4.05246 15.9475
1 30.7015 25.8446 27.0499
1 8.72301 1.40754 11.9788
1 11.0371 20.0174 26.1547
1 8.45958 3.72885 21.9325
1 1.35362 18.2361 11.7242
1 6.91051 15.2697 23.3097
1 19.9139 17.8611 15.3514
1 24.2298 9.63333 14.8677
1 15.6581 2.585 13.3983
1 9.19468 8.86937 8.497
1 2.7874 9.42228 21.5924
1 28.3439 20.4562 29.1508
1 23.2747 10.3929 12.5486
1 28.1297 22.8506 24.9611
1 18.8175 15.3175 13.174
1 9.31388 2.01837 30.0483
1 9.8072 27.3873 5.32403
1 8.83742 26.9248 10.7663
1 12.2966 18.2288 20.5131
1 24.9516 20.313 11.0801
1 9.20781 17.2071 6.85319
1 4.45445 30.1948 15.1231
1 20.7224 24.9521 24.0837
1 5.56839 0.631461 18.6434
1 28.0728 2.45172 26.1041
1 25.2701 26.6766 8.71076
1 28.3132 17.9406 13.3113
1 3.31773 21.5052 19.203
1 30.2483 14.0704 8.17774
1 4.83902 14.1193 2.21563
1 19.4436 19.6702 13.5136
1 19.2935 3.13798 5.96859
1 19.5347 4.5004 21.3855
1 23.8273 30.2813 20.6678
1 3.94664 2.55756 2.79884
1 18.8049 15.9878 5.11588
1 17.1103 2.19224 12.4144
1 2.59384 28.6791 6.68221
1 18.3083 21.3432 17.6659
1 28.2047 26.5382 6.14455
1 3.08303 3.7816 27.3589
1 12.7688 3.30986 14.3816
1 13.0504 18.8994 17.3287
1 25.0344 0.501055 6.83436
1 17.512 27.8421 18.9537
1 16.9734 24.9848 22.4634
1 1.09366 25.9203 2.15328
1 5.34007 6.79637 10.2902
1 16.5671 9.05041 28.3351
1 22.4179 27.6654 6.73535
1 23.8308 29.0035 5.58702
1 15.4062 22.2806 1.93039
1 2.49872 30.4294 18.1993
1 15.238 28.1966 13.8853
1 8.38001 6.10687 4.72296
1 8.98979 9.87046 28.5902
1 19.6989 3.58127 8.75672
1 16.9306 6.71896 28.8432
1 12.7201 10.8572 12.406
1 9.57925 17.9722 16.8901
1 19.823 19.5024 17.4618
1 10.7342 7.20035 13.9554
1 29.2447 0.328125 16.3946
1 3.33754 17.1405 28.9008
1 5.70704 29.3945 4.17594
1 22.2357 2.02783 24.2899
1 18.0476 14.6468 22.4585
1 11.3538 10.3751 2.69511
1 9.50466 22.5717 4.65371
1 26.2564 22.3201 22.5676
1 8.59515 23.5175 8.77974
1 17.3214 2.94619 15.7354
1 2.29032 13.3556 2.21651
1 11.7861 1.78225 7.83605
1 18.1681 7.84583 21.7925
1 12.8151 7.65616 3.15213
1 3.72013 29.3432 7.2139
1 9.23804 26.4885 19.0374
1 21.8432 25.4928 21.8384
1 16.9828 1.3409 21.4704
1 14.8198 11.7068 28.5456
1 14.2881 3.26484 8.22943
1 4.56109 2.07088 0.383673
1 25.7227 3.98317 5.69604
1 24.6374 0.917995 5.07001
1 12.5156 20.9357 3.0439
1 9.04967 22.3786 9.95742
1 1.74602 20.1761 4.18573
1 0.393278 10.2207 17.681
1 4.28317 24.0064 30.3953
1 9.05427 12.4165 7.5075
1 13.6845 24.1777 2.95144
1 16.793 21.4147 29.3555
1 17.305 7.87733 27.631
1 25.6561 9.80553 27.8326
1 15.9709 13.4144 13.3558
1 0.149068 4.41318 13.0623
1 14.7734 27.7974 24.6073
1 8.86598 25.0958 21.1483
1 10.252 26.35 14.9007
1 6.02282 23.1035 27.9881
1 5.03907 12.1536 16.7748
1 15.6021 30.0847 26.2025
1 3.00385 15.5395 2.84482
1 8.12398 30.0151 16.5244
1 26.5519 5.89957 4.67693
1 1.74241 8.31312 25.9398
1 5.52472 15.4873 22.6158
1 17.1974 2.91197 3.14559
1 7.82443 2.60085 21.6178
1 24.8114 17.1547 12.3803
1 18.7223 1.06681 8.12819
1 4.64684 8.76951 14.5647
1 27.8882 10.3955 9.99214
1 26.6236 3.03114 1.08331
1 19.417 2.66482 11.9837
1 17.4088 11.8056 5.59252
1 18.4414 7.46555 10.8467
1 9.49174 2.94065 13.4233
1 10.4401 8.53111 17.8011
1 6.11303 26.6159 1.02397
1 8.15104 26.1439 6.82404
1 20.3658 7.92372 29.1112
1 28.4736 23.3123 18.8149
1 11.3932 4.71502 7.0228
1 17.1775 8.71799 14.5748
1 8.20719 12.3508 27.1883
1 17.8149 22.994 10.2925
1 20.1814 7.09297 26.3862
1 16.0407 5.36399 1.75199
1 24.7373 5.53335 18.5617
1 16.2571 1.93638 15.8476
1 16.5629 7.80633 7.17327
1 4.60439 26.0854 25.2715
1 21.2812 6.02302 11.7516
1 2.35774 9.73675 15.3306
1 12.897 22.3301 24.6251
1 3.64445 13.4762 21.4591
1 22.8533 14.7062 18.8603
1 21.3681 1.34046 25.517
1 11.0182 24.9072 22.8109
1 16.6668 21.3237 7.49229
1 9.9313 29.9295 14.2792
1 3.76451 23.0443 12.1856
1 9.695 3.04634 27.6756
1 13.3616 15.2143 18.5648
1 20.9597 9.91945 15.5813
1 3.61753 25.7188 9.28506
1 14.8867 25.8461 17.8599
1 11.6752 17.8735 19.1245
1 21.3294 0.45295 0.97224
1 23.1382 5.28402 2.68726
1 6.96852 11.7312 9.63535
1 7.22992 19.3318 12.7706
1 27.9941 10.488 6.57603
1 13.2606 4.338 8.94903
1 2.22475 14.9922 13.68
1 8.44207 9.84509 22.1523
1 0.893235 0.408839 2.80486
1 19.1611 21.8736 15.0138
1 23.1453 18.8368 29.2271
1 19.7321 4.77364 1.1691
1 6.34436 27.7298 14.3456
1 23.4827 16.9422 24.3681
1 9.0445 28.7488 22.2663
1 25.8288 17.8815 23.0195
1 3.73354 3.17442 5.26031
1 29.24 0.223865 11.612
1 19.8096 20.8497 25.047
1 25.1474 18.1048 3.68065
1 4.80167 22.9088 9.1548
1 16.4129 2.04072 25.5937
1 24.7747 9.81413 2.67163
1 16.2757 10.739 15.7485
1 16.2276 3.76317 23.6855
1 3.05702 25.7168 25.1917
1 12.592 20.3993 1.64793
1 24.0802 1.88055 8.78981
1 27.8776 1.80928 22.6793
1 19.5575 0.323424 3.95673
1 12.4173 29.7586 10.1664
1 17.8301 21.7949 20.9884
1 5.48457 14.0472 27.7921
1 9.99343 13.0124 22.4677
1 11 20.1973 15.86
1 8.09845 27.1856 28.4746
1 9.69485 24.1053 6.53704
1 6.21178 11.3163 17.222
1 5.68464 1.86931 26.1186
1 14.6543 13.187 28.5676
1 20.5822 1.5723 3.82856
1 28.7961 21.4133 9.61993
1 3.0967 17.032 4.83866
1 2.66451 20.1096 17.235
1 23.1322 5.47199 7.06527
1 21.3889 17.559 25.8331
1 3.37302 8.80649 0.46718
1 24.1245 17.1271 4.20042
1 9.04338 19.3359 24.7446
1 16.9118 18.4667 20.4776
1 22.4529 11.6072 11.9776
1 17.7474 30.1788 28.2167
1 29.8203 25.1051 9.2429
1 19.6166 11.433 9.73092
1 14.435 25.8208 22.962
1 8.90333 24.3488 24.9836
1 13.459 16.4771 9.56712
1 16.9065 26.364 6.28783
1 10.261 6.56182 11.4376
1 2.99641 28.6191 20.782
1 10.3078 29.3035 5.76479
1 17.8293 11.0401 28.8716
1 7.12263 13.5708 8.27026
1 13.9232 28.9796 27.7028
1 5.53925 22.303 4.14885
1 27.2472 3.63531 25.1934
1 28.3157 10.3753 19.2426
1 15.51 10.9704 14.5717
1 3.05067 1.44721 18.3586
1 1.60207 20.9373 17.3918
1 25.5754 20.2094 1.37589
1 17.3479 26.5236 24.1066
1 26.1122 17.3619 3.11698
1 24.7889 12.6104 12.4149
1 4.27452 29.503 27.1395
1 15.2007 25.2959 8.5323
1 7.51517 18.8614 24.9169
1 11.2703 10.9916 16.9733
1 17.0128 27.5271 15.3307
1 29.751 27.9917 5.78675
1 26.1738 11.9204 18.0958
1 17.9447 2.07248 8.8621
1 9.12822 5.90926 21.3994
1 5.10669 3.844 24.892
1 6.10565 29.4762 2.73019
1 14.4369 20.8056 30.012
1 17.2793 10.4522 24.2035
1 7.83735 1.48979 18.7447
1 12.2438 18.4874 12.2455
1 7.38866 25.2214 26.882
1 27.9261 28.9482 3.43077
1 19.0256 18.1907 14.0927
1 11.725 8.69582 4.97404
1 2.35706 20.8924 29.3368
1 3.35283 14.2857 20.415
1 29.0734 11.4704 16.9348
1 25.3566 12.5551 6.07575
1 5.39707 8.7863 6.3658
1 14.3558 23.4848 27.6255
1 2.64821 27.3203 6.73498
1 3.52135 3.78184 28.9025
1 20.0304 14.4381 9.79751
1 0.438456 9.72883 13.2677
1 7.86221 13.9719 29.5353
1 6.6526 26.4201 13.9024
1 9.56567 20.7923 7.84453
1 5.12431 28.1458 11.7862
1 8.81178 15.0596 2.17815
1 27.4599 8.94454 4.69751
1 10.1457 2.05045 9.70665
1 23.1754 1.87024 18.5001
1 6.47399 2.73039 17.9733
1 12.2922 20.1401 6.18981
1 2.94422 0.15906 29.2446
1 1.51236 20.3117 28.1727
1 3.02152 8.20025 4.13771
1 2.57616 16.6891 24.2623
1 10.3709 5.49296 5.15542
1 25.8961 8.76902 9.61566
1 4.30297 23.2047 15.0356
1 6.47855 2.37143 12.5086
1 0.657141 22.7732 19.6613
1 28.113 20.8291 10.5472
1 17.7118 3.3003 20.6168
1 8.97729 2.89818 7.93162
1 4.67883 11.9974 10.2738
1 4.93274 16.9316 22.4291
1 15.1612 5.60445 4.19655
1 28.368 8.66252 22.6001
1 16.2744 16.6686 22.3525
1 20.431 4.5172 17.4047
1 15.5653 4.62442 16.2033
1 19.3947 24.4984 23.537
1 2.79004 23.1721 8.01294
1 11.8582 8.49745 26.5544
1 0.120211 5.41705 15.3768
1 21.7 25.5721 29.7692
1 17.5605 29.9879 12.3708
1 14.0332 25.2877 7.72293
1 12.2491 5.63064 16.0132
1 3.30795 25.2456 27.6703
1 9.18049 0.510239 27.559
1 28.1979 29.6436 20.6013
1 28.681 18.9628 16.1313
1 5.8049 18.1846 17.7166
1 3.23602 24.266 19.4543
1 6.01173 9.1124 22.8589
1 16.8932 20.4176 13.6401
1 6.64175 5.60455 13.833
1 20.3509 6.87944 12.5266
1 21.5747 7.26084 26.9463
1 14.2316 9.79523 19.2011
1 13.4251 12.898 24.1147
1 24.3612 3.92648 27.4624
1 10.0873 5.65003 22.3689
1 27.0005 3.73358 24.016
1 18.1169 20.0704 5.43259
1 29.9021 8.69769 20.6205
1 15.5904 5.37999 27.0616
1 20.6399 17.4016 1.56473
1 16.8583 17.3126 1.04472
1 7.5203 14.0087 2.71006
1 15.1931 9.46124 10.0917
1 27.4262 8.08879 0.375692
1 8.663 18.0085 22.2434
1 0.645182 28.1806 29.0495
1 4.53891 25.4027 0.576945
1 20.5382 4.52827 10.8971
1 7.63074 20.669 12.4948
1 28.3413 1.41594 14.7536
1 5.07306 6.15542 21.5788
1 13.9062 19.6115 29.1703
1 3.37781 6.3794 8.32533
1 8.36571 21.9466 16.0369
1 16.9416 18.7786 1.23323
1 26.9314 11.1677 0.845912
1 29.8361 14.1836 19.7885
1 7.38858 16.0643 8.26926
1 2.69938 9.4594 23.8756
1 11.7568 16.4034 17.2478
1 16.1252 7.11464 10.2456
1 9.62617 9.73759 18.7153
1 27.129 3.85906 11.6603
1 1.1712 5.42521 16.694
1 23.2758 3.22696 19.5129
1 13.5936 17.9498 20.0398
1 28.4538 2.32214 18.3895
1 5.26398 7.53817 21.5511
1 2.13282 10.8806 10.2185
1 19.8278 26.9196 3.78516
1 13.2565 20.3761 14.7566
1 13.0798 5.90217 14.7147
1 25.3325 13.329 18.7416
1 3.2912 10.7114 2.79827
1 6.45741 21.5691 3.59618
1 23.0198 17.1672 18.6646
1 30.4914 26.4148 17.5816
1 28.0163 8.55178 15.7547
1 1.45727 24.673 14.8679
1 11.6462 0.236813 17.3753
1 26.8695 11.3084 29.5217
1 24.5697 17.5093 27.8531
1 18.573 20.8781 27.3387
1 14.0497 16.0333 7.19517
1 19.8836 10.0511 21.5621
1 20.571 25.2893 4.32245
1 27.6285 16.5984 9.95498
1 0.650472 23.8846 5.61569
1 0.674905 27.6132 4.03168
1 3.22357 4.02619 12.1613
1 16.473 4.94024 22.7543
1 13.5621 19.7645 21.9225
1 1.38379 29.4779 6.6546
1 27.3881 15.9177 21.2212
1 23.3833 17.7016 16.513
1 9.02279 20.1288 22.97
1 29.7802 4.72622 22.7887
1 12.3754 17.6964 9.82775
1 8.92903 13.5409 19.5276
1 15.5661 15.317 25.5365
1 14.5462 6.44092 25.275
1 24.9244 26.3886 11.2086
1 22.9504 9.49561 16.5514
1 22.9436 4.1456 1.66409
1 0.722886 21.832 3.01565
1 23.3119 15.9446 29.4019
1 21.8318 3.05368 1.17868
1 14.4603 1.50804 29.4128
1 10.6556 12.1246 28.8049
1 26.2741 8.71015 6.99718
1 27.6784 3.16032 20.421
1 3.97897 27.0642 23.0627
1 3.27476 14.0884 27.0601
1 1.11912 7.42285 5.02139
1 3.96213 25.7179 13.6833
1 7.17807 27.9878 19.6403
1 7.5733 5.75761 5.91663
1 22.2645 17.2217 15.8384
1 9.04238 15.3872 16.5378
1 29.8347 30.2646 2.40229
1 17.5639 22.2503 30.1801
1 11.0391 6.78067 22.7099
1 8.77437 21.0335 24.7966
1 24.3678 6.54563 28.863
1 20.7801 11.7504 20.8617
1 22.7401 13.5484 20.3562
1 29.9434 29.2448 25.5998
1 22.4054 2.59052 20.713
1 1.33752 15.9409 24.4619
1 14.0015 2.9498 1.52461
1 16.2491 23.2545 12.3464
1 0.831954 5.42734 3.69677
1 21.2022 19.1295 9.59745
1 5.886 6.06829 3.69679
1 17.6361 4.01842 19.4981
1 0.976918 0.957785 14.1023
1 5.17329 24.8206 21.6734
1 16.2699 10.466 23.1653
1 22.3298 4.73022 14.8382
1 7.10567 30.3654 26.3366
1 7.31385 15.4013 25.1737
1 5.81269 20.0728 23.5806
1 19.0423 27.9719 26.5541
1 8.82157 9.52063 1.66856
1 27.5561 28.0701 26.0296
1 6.10013 13.9852 17.7716
1 22.816 10.0913 7.6382
1 0.649495 3.04371 12.6063
1 25.0375 8.67165 21.0641
1 12.3119 3.00677 29.4255
1 25.2985 26.9576 28.0849
1 5.88145 24.3152 6.42796
1 20.7121 22.591 5.26773
1 24.1169 29.3164 28.9693
1 13.1663 28.5987 14.8051
1 13.1502 29.3529 2.22274
1 0.59062 26.1166 6.66185
1 12.9531 14.8744 21.2311
1 22.3313 7.50613 8.10153
1 23.8199 12.9482 17.6918
1 6.16206 4.44187 4.12564
1 3.16138 30.0654 20.5287
1 30.016 23.9253 16.8282
1 28.3137 9.43545 5.69104
1 17.6009 25.3422 13.8868
1 29.5614 18.0992 15.4928
1 27.2256 11.9407 26.3719
1 9.80315 14.7278 19.7592
1 9.37486 11.5974 2.4563
1 24.9079 29.5844 11.5357
1 6.33272 8.62802 25.9028
1 12.078 11.2712 6.77323
1 2.90342 12.9146 29.053
1 3.18776 18.2119 8.87718
1 3.47157 6.96177 4.94032
1 15.744 2.06619 29.3952
1 28.5476 14.1545 20.2293
1 0.746579 4.28793 25.002
1 12.5138 5.42796 1.52917
1 25.9732 16.488 16.3684
1 23.1381 27.538 1.34913
1 11.2499 15.2878 29.4636
1 4.05739 19.9412 6.93828
1 14.3298 3.01937 22.5277
1 12.4527 16.1981 27.0727
1 1.94401 11.5363 26.887
1 6.6484 24.7112 8.86964
1 3.10101 12.1247 21.3295
1 3.83147 15.3627 18.2541
1 2.08073 25.8206 23.8635
1 14.1599 23.5905 17.8438
1 0.822703 5.34503 14.0658
1 22.9815 10.8889 28.3637
1 19.7633 6.60769 5.39738
1 5.38147 25.2013 18.019
1 12.5183 23.3511 7.88202
1 23.5839 11.9436 27.6108
1 27.6728 5.35214 10.3388
1 1.0816 21.4419 25.2587
1 19.515 26.3931 21.59
1 27.4528 14.4071 4.28309
1 11.8911 20.8481 8.90886
1 26.6435 11.5433 13.0825
1 9.54912 20.5994 0.271342
1 6.11779 26.0829 19.2578
1 2.14597 23.8741 3.32134
1 3.40666 19.1209 27.1602
1 28.8152 2.29765 0.687063
1 20.868 3.54847 26.9304
1 9.43983 14.9046 26.5416
1 18.4874 8.22385 9.58042
1 15.2687 2.92095 23.606
1 22.2791 30.1781 2.2188
1 3.33622 11.5271 20.1325
1 28.9714 8.33361 26.5335
1 27.4297 24.8464 12.0757
1 9.68136 9.46663 20.2751
1 28.6616 17.5925 0.492209
1 25.111 11.3674 17.4053
1 14.6488 12.3106 17.5456
1 19.5743 9.96762 8.69799
1 13.0798 23.6609 13.8933
1 13.2502 17.6639 27.378
1 19.8335 22.5592 1.1376
1 27.4776 7.8769 28.3652
1 14.4128 16.7815 5.94639
1 21.5442 8.35381 20.7158
1 2.03255 24.7975 17.2511
1 24.4977 6.35284 20.825
1 28.6656 25.0406 2.53039
1 10.436 18.9946 27.0959
1 4.59041 24.0391 6.7324
1 10.2489 12.6569 25.977
1 14.6842 20.0851 18.5518
1 14.6712 19.8702 20.7981
1 0.499778 21.4647 6.38774
1 7.21856 1.85956 28.1496
1 8.17161 16.3833 15.6653
1 6.48662 24.877 11.5126
1 24.7099 7.58062 30.2707
1 29.9925 8.58139 22.6596
1 3.07153 12.9048 16.4552
1 20.3491 14.4431 17.1257
1 22.2537 25.4494 28.3835
1 25.3741 27.8672 22.0664
1 11.0349 5.32923 11.3056
1 0.151863 29.9268 21.1071
1 27.5571 15.2347 25.2665
1 22.5526 19.874 9.39442
1 13.5733 5.22315 11.2233
1 5.1834 25.8642 12.978
1 26.3988 1.43025 17.315
1 12.131 18.6573 14.7858
1 8.79039 25.0772 28.8643
1 17.749 0.145941 18.6385
1 29.6813 15.5338 22.5176
1 25.448 26.0562 15.1514
1 15.8031 24.4928 24.7606
1 0.298586 25.3749 14.5026
1 5.9813 7.83208 5.34654
1 28.1252 12.3274 23.8725
1 26.5203 19.0837 28.4026
1 15.5961 30.0123 3.09435
1 25.1227 13.9564 0.192001
1 13.696 0.694706 14.0596
1 4.31625 2.63663 8.82387
1 24.1967 24.5916 20.9961
1 11.5156 6.18904 27.5355
1 8.9625 4.13016 29.4957
1 0.631136 2.9866 15.1613
1 5.62927 10.6261 1.52508
1 4.45491 2.53629 21.937
1 1.48896 1.82744 23.9838
1 13.4791 13.5793 15.8622
1 18.4847 5.47262 12.062
1 22.8339 12.8807 15.234
1 1.09801 7.67839 16.4112
1 16.7524 3.93773 18.3482
1 29.1631 15.8448 23.7094
1 30.2601 11.1784 13.3174
1 8.35899 5.04851 6.98471
1 2.79884 4.19685 14.955
1 23.4211 1.74124 4.85812
1 18.4097 27.2285 7.6115
1 6.22866 6.26309 29.7463
1 29.4106 2.28823 20.7262
1 2.05991 15.095 22.5174
1 23.8115 25.3042 18.672
1 10.1195 5.67067 14.6126
1 15.331 8.53037 24.1643
1 15.8026 26.1884 21.1007
1 28.7358 10.492 18.0011
1 7.13995 12.1146 4.86628
1 12.555 13.0669 18.2567
1 7.82223 11.7843 12.709
1 9.48955 5.40045 24.4311
1 11.8654 8.66032 22.306
1 8.88499 7.62602 24.8874
1 4.50316 25.9457 17.7467
1 18.2622 16.8248 23.5785
1 21.8781 20.9041 3.79066
1 18.1202 26.0741 9.57388
1 4.80278 20.854 1.26113
1 9.78568 19.3094 4.1767
1 15.4333 18.6063 24.4385
1 21.5655 3.2007 5.26554
1 21.8398 19.1785 17.6525
1 13.5797 3.53481 5.81865
1 27.5354 27.7387 15.6376
1 8.01872 5.55182 13.5908
1 29.4807 9.31273 17.3266
1 6.9221 21.1553 -0.0575574
1 4.29134 19.4059 19.2019
1 0.865185 15.3264 8.90474
1 4.71314 14.4065 20.0982
1 0.562435 3.61706 29.5024
1 27.7352 12.809 22.4819
1 8.20165 25.087 23.8556
1 28.1769 19.9136 1.49205
1 8.10404 27.5531 11.8835
1 11.4628 1.86277 10.4968
1 18.5413 2.03311 12.8905
1 10.3218 4.70303 23.3352
1 21.868 17.8793 18.1505
1 26.6108 6.61211 25.2298
1 11.3739 27.1317 18.0207
1 6.9145 20.2251 24.8711
1 26.0143 18.4754 20.629
1 22.4145 11.5004 5.71701
1 4.89025 16.353 7.08873
1 21.8615 8.89294 13.692
1 13.3063 3.33044 15.8217
1 27.9604 26.5277 10.3372
1 12.3939 7.15256 8.68106
1 15.9797 6.38325 2.94388
1 16.406 0.989483 10.4404
1 5.85525 5.19469 26.8965
1 16.9133 20.7569 17.7194
1 20.2899 23.3712 28.6957
1 2.20569 -0.125613 19.5326
1 20.6325 6.49144 29.0158
1 19.0131 25.7661 4.6621
1 6.07585 26.1153 8.57374
1 0.781797 22.2537 14.3761
1 16.6213 11.2819 9.6079
1 14.7027 2.17047 12.092
1 28.7133 13.1464 12.0433
1 10.2631 22.6743 19.9665
1 23.9808 2.83367 2.69878
1 11.9954 17.6024 25.5025
1 26.8296 10.9701 18.8341
1 3.21146 9.36103 2.0449
1 2.32191 10.5748 7.32392
1 0.540987 20.4628 3.45276
1 1.26237 19.0265 8.83755
1 3.34078 16.2682 7.26798
1 29.2672 7.98701 18.1268
1 2.22042 10.1824 19.2846
1 8.66799 5.39859 14.9245
1 22.751 22.4 23.682
1 30.1526 3.47572 27.0791
1 8.13749 1.08556 22.2447
1 10.7374 22.7357 18.1224
1 16.7438 26.6314 26.4245
1 27.0365 11.1986 4.04738
1 27.8833 25.8816 28.6319
1 9.16955 3.3257 14.8554
1 24.8367 27.201 19.2945
1 19.7445 1.25937 16.2243
1 27.2711 4.65949 9.06466
1 8.26321 20.2404 2.88448
1 13.638 8.34531 4.08746
1 14.5241 26.4639 25.3838
1 13.4823 26.739 19.1686
1 19.734 11.8279 6.45032
1 18.5418 28.9402 9.4902
1 4.38903 19.789 0.25336
1 0.449909 22.3342 22.9449
1 19.5619 13.469 8.38907
1 17.7657 16.4768 4.12112
1 21.733 26.2177 15.2503
1 2.65077 18.7431 13.6483
1 4.67593 16.8404 4.7734
1 9.14008 29.2323 16.4007
1 23.8386 17.7648 5.61341
1 20.3697 21.5001 7.63476
1 29.8527 19.3549 0.817206
1 8.66147 10.4246 9.00901
1 18.0864 18.5523 7.95814
1 30.3966 26.032 10.1091
1 26.6308 21.3861 18.4075
1 23.6339 9.48993 9.42374
1 27.7445 25.9136 9.10983
1 4.58741 1.02091 27.4068
1 22.6439 13.6832 18.077
1 28.9907 23.2923 0.942769
1 11.3044 24.6528 29.2057
1 14.2434 15.6243 22.9969
1 25.2227 18.8531 27.6304
1 14.6368 27.5838 16.2114
1 7.05702 3.86287 17.2555
1 8.27083 23.3045 25.363
1 9.82786 24.0747 7.9706
1 29.2131 10.0148 9.87052
1 25.8907 10.6069 19.8696
1 4.75152 13.0149 1.23655
1 10.3111 15.7146 26.0794
1 8.32286 10.7188 11.5083
1 12.0569 9.92495 19.6079
1 11.9332 11.1195 22.6497
1 26.5383 13.8722 30.0342
1 13.7142 3.31832 4.22535
1 6.37567 3.84483 2.89647
1 15.7608 2.10175 19.6331
1 4.6993 7.10958 7.93826
1 25.9479 17.4226 13.94
1 22.8985 19.651 2.0937
1 24.7131 3.05236 19.9961
1 6.00349 30.0233 20.8633
1 29.3806 15.2449 28.8449
1 4.07945 22.8329 21.2449
1 21.467 18.6695 27.8617
1 3.79874 11.4083 22.3805
1 3.96181 3.04505 11.1842
1 11.8404 4.25446 1.54093
1 22.4858 4.08479 28.2831
1 25.0828 11.6762 15.9498
1 1.64021 19.2906 5.22317
1 23.0916 28.1141 25.078
1 15.6884 11.8898 7.2971
1 21.0546 24.8366 12.3582
1 26.7928 2.17687 8.26604
1 25.9173 15.6722 3.11197
1 2.39432 25.3965 8.7952
1 0.675095 4.41603 8.2009
1 30.4467 9.72533 4.43255
1 3.1369 11.9909 4.78297
1 3.67358 30.4307 2.71155
1 15.9561 15.942 9.25965
1 4.17032 20.0034 27.9394
1 23.6998 16.9034 1.54382
1 5.85554 15.2784 20.9521