4096
Atoms. Timestep: 900
1 15.2225 13.7847 14.1543
1 19.0385 26.4811 25.9292
1 9.75452 10.0005 7.43824
1 18.1174 2.99294 22.2441
1 1.38476 20.5015 3.97056
1 10.9773 19.0356 24.712
1 18.5752 1.70667 10.57
1 26.1664 0.323561 6.50344
1 16.3947 4.26795 7.006
1 18.8607 13.5645 2.6845
1 21.3137 10.7384 23.1688
1 23.7375 2.62528 17.6149
1 11.3871 1.5247 19.6664
1 19.6144 5.2608 0.81859
1 25.2852 22.6439 14.7511
1 4.9507 22.466 25.5515
1 23.9713 25.2006 17.747
1 6.64802 16.7373 25.9676
1 4.52405 9.21988 1.34818
1 3.1176 30.498 15.2295
1 5.44528 24.381 10.5498
1 9.51175 22.0478 14.6292
1 15.479 17.0015 16.3518
1 5.9744 23.1264 26.1688
1 9.76012 9.55156 10.1618
1 29.4555 9.56186 14.8239
1 18.7858 29.6943 11.5772
1 5.83114 9.06511 12.4785
1 18.465 14.4015 27.9557
1 7.44593 22.5339 26.2945
1 7.4205 25.498 11.3176
1 4.55006 13.281 29.9056
1 16.8889 20.5233 10.4615
1 10.7928 9.0608 18.6976
1 1.4685 26.1539 10.6774
1 8.807 25.062 18.1438
1 25.3596 5.7098 14.4786
1 15.243 21.7063 27.3664
1 11.9041 14.5796 3.85408
1 30.1637 13.2265 17.6777
1 17.981 3.78672 20.9527
1 28.4469 18.3495 8.13189
1 6.22164 15.0459 15.5911
1 17.8765 14.6343 15.7964
1 17.3306 4.92966 1.35072
1 15.2764 29.2548 19.2876
1 12.4161 2.93173 17.1351
1 12.7774 5.25232 29.975
1 9.05624 21.2137 9.20172
1 17.2305 4.00913 8.21894
1 15.7685 5.77771 4.5449
1 18.4522 3.09583 14.9322
1 10.448 23.6548 17.1414
1 11.4265 9.75456 8.35709
1 3.6517 26.0582 24.9807
1 17.2633 9.9553 11.8896
1 3.89137 10.2647 19.9341
1 8.75639 21.8021 29.3027
1 2.06575 27.1899 29.1921
1 27.0555 11.3107 28.3345
1 0.848912 8.53969 16.9657
1 0.226486 28.3393 11.124
1 20.1445 16.9076 14.0368
1 9.18742 14.721 2.68262
1 7.18289 4.9658 10.4355
1 19.0088 24.6725 6.1591
1 19.6745 20.0323 0.753812
1 22.3225 20.3699 10.8037
1 27.3439 28.353 18.6358
1 21.6886 4.35145 7.06756
1 12.9479 21.3287 24.7229
1 24.9676 3.26826 0.198854
1 6.37294 9.57394 4.15443
1 13.9815 28.618 8.59598
1 3.3662 29.6945 4.90183
1 20.2149 1.92354 27.8837
1 5.82058 5.09586 3.96655
1 22.8696 25.8822 23.3903
1 0.550345 8.13909 3.11876
1 0.794557 28.0201 19.274
1 24.2878 8.94065 0.36797
1 20.2502 21.1001 24.4751
1 19.6146 5.85231 16.0186
1 30.4358 19.9352 1.01795
1 24.1336 6.48555 3.81856
1 26.9589 28.8328 13.3303
1 20.5042 6.24728 25.2414
1 1.91929 1.46319 0.294488
1 15.1769 1.77431 18.9179
1 27.7389 13.4214 24.111
1 23.1094 26.8651 9.71573
1 9.20705 7.4763 6.05541
1 18.0669 26.5515 24.8522
1 29.1553 13.815 11.2813
1 26.4579 21.7174 4.96536
1 15.5365 24.5257 6.85201
1 23.7721 20.3049 7.79471
1 7.01527 1.7816 2.68269
1 17.7973 0.801134 15.2592
1 11.057 19.8492 29.4293
1 6.76249 7.04693 6.31696
1 0.095908 27.5182 20.5033
1 14.0637 25.8296 18.1131
1 8.75975 0.680657 3.60754
1 21.2802 21.1208 21.4469
1 0.883519 18.1315 1.31214
1 3.03542 13.8815 11.4924
1 11.1277 29.7103 29.4803
1 13.0766 2.70189 10.0943
1 12.6624 25.4818 28.9773
1 14.3693 14.9063 8.40936
1 11.8053 27.2326 23.8087
1 26.5427 2.1559 11.6252
1 19.0045 28.4601 3.9079
1 30.0552 16.1811 21.7683
1 24.3131 15.424 14.0434
1 10.813 27.4794 10.8045
1 29.2597 21.7848 4.45686
1 13.7719 27.5742 10.674
1 17.6043 10.7294 9.6887
1 18.3925 8.0774 17.9616
1 25.1781 20.9807 4.73171
1 22.855 0.39428 4.92204
1 21.1696 26.176 19.0007
1 7.64924 14.8422 4.67053
1 17.0811 11.8101 18.2502
1 0.0806063 20.4661 10.8973
1 17.1277 20.3801 17.0497
1 16.2156 20.5288 13.6528
1 3.46045 27.3668 11.9572
1 27.8239 17.3106 18.5528
1 7.42572 9.68191 14.5361
1 9.06242 24.7318 9.97075
1 10.1584 3.41587 3.98373
1 7.96265 22.7058 18.3606
1 19.5489 7.16675 18.0533
1 14.7078 8.09181 12.7713
1 22.6088 9.1519 19.737
1 13.972 20.9501 25.5693
1 28.5629 23.3952 4.41301
1 22.4816 3.71662 28.9931
1 10.285 24.4214 22.6261
1 22.4977 1.60011 0.820899
1 12.6941 23.3336 13.6862
1 21.9977 22.6046 10.8773
1 23.5576 29.4795 18.5563
1 2.88686 12.8848 12.474
1 21.6775 13.9253 30.0768
1 19.4214 0.877639 8.81675
1 20.4049 20.6826 16.1401
1 26.3754 26.6931 30.2035
1 3.5082 21.1246 28.3676
1 20.9358 11.7645 5.90513
1 16.7482 1.19408 30.2034
1 5.36979 20.4903 9.93851
1 23.6165 2.9733 9.19406
1 7.72148 23.1551 11.9182
1 8.86742 6.27574 25.2242
1 7.25095 19.2022 1.34328
1 29.3969 18.7795 24.8597
1 25.2745 26.9398 4.65738
1 2.26308 27.3918 19.0336
1 9.11402 23.3297 12.2361
1 11.4258 5.41588 27.878
1 18.3768 26.1904 12.5538
1 0.437998 12.6095 12.7952
1 15.8568 6.85122 5.57005
1 18.7905 14.4584 24.4754
1 18.9519 13.6706 18.621
1 10.3721 13.7432 24.1515
1 5.41552 22.2792 27.5584
1 13.0731 6.11679 16.7623
1 11.5784 19.6607 19.4691
1 30.3712 12.4904 21.3211
1 29.7809 4.25636 9.61908
1 17.7362 15.7546 19.1249
1 7.66244 21.7653 12.0518
1 13.5348 26.0213 7.49841
1 24.1022 17.1093 17.0745
1 2.1813 12.1765 9.89053
1 8.71558 10.3498 13.6129
1 20.9334 12.5944 20.2734
1 8.56403 12.8001 20.5669
1 14.9817 0.485463 1.42576
1 1.57355 23.8545 5.57913
1 27.1154 5.43994 12.0599
1 20.3898 3.87462 7.0916
1 10.8612 20.2028 10.6673
1 21.916 11.1074 18.5058
1 26.6395 7.71243 5.32055
1 14.0108 18.4457 5.11234
1 1.1584 8.95348 28.5107
1 28.0787 13.9853 21.3401
1 11.5675 16.6924 14.1807
1 18.4816 27.3264 19.8301
1 1.50015 23.6368 0.918684
1 3.72548 23.1709 8.96834
1 5.50863 11.7552 12.7927
1 8.27165 6.06303 8.20386
1 22.0231 18.6582 2.04554
1 27.8296 28.6061 25.3414
1 5.132 28.679 1.50567
1 18.2347 18.7193 2.59081
1 17.1361 29.7954 6.13229
1 0.411712 19.1692 7.8226
1 11.0459 7.05744 20.3577
1 23.6277 25.7973 19.1722
1 26.6183 18.8944 29.1863
1 25.404 24.4023 23.1672
1 2.57881 8.04355 25.0973
1 17.7326 4.15214 10.5936
1 16.5679 1.85608 25.8514
1 21.9839 23.3502 0.765624
1 18.6482 5.82837 7.75015
1 6.64399 22.7332 8.09215
1 4.18377 12.2293 15.9666
1 25.9803 21.9338 23.0673
1 1.95871 0.623967 24.1017
1 6.22632 11.7669 3.18863
1 8.5832 11.4982 28.9368
1 17.4826 7.76818 0.0445449
1 28.504 13.996 15.6595
1 17.7446 7.63565 20.4147
1 5.78643 23.7512 2.70627
1 22.7719 15.6426 8.02583
1 27.6628 16.1486 21.9588
1 17.0913 9.42834 8.97456
1 20.3633 29.6576 26.2655
1 3.16976 14.1405 4.95033
1 27.8939 1.4993 29.1045
1 3.12763 29.1759 20.0205
1 12.9704 10.4599 11.4687
1 10.0258 14.603 16.8696
1 1.27612 7.15501 8.96674
1 29.7781 28.7649 15.8654
1 25.2159 22.339 16.9938
1 1.72096 4.4242 5.90738
1 4.00556 7.57022 12.8762
1 19.4582 7.75334 1.76177
1 27.5439 27.2955 29.2284
1 17.862 2.21188 18.5686
1 18.6223 3.42551 23.7016
1 0.873059 14.1408 8.54414
1 15.0744 27.8517 23.7529
1 15.9085 19.1593 4.28592
1 12.1749 18.5983 2.9165
1 5.30266 21.7578 17.2225
1 12.8214 23.3055 4.55425
1 26.126 23.0243 29.0451
1 22.3856 21.0401 13.7622
1 28.8545 20.5531 4.76991
1 12.3922 9.26201 10.4825
1 21.2493 17.7707 29.4533
1 7.52304 4.62375 23.3909
1 9.12914 12.2611 6.57308
1 26.8544 24.1224 20.2333
1 22.0813 2.61133 2.79333
1 8.40616 14.663 29.9406
1 1.81901 1.45305 12.9748
1 27.6604 3.0156 9.33776
1 9.48918 9.72804 26.047
1 11.9214 27.7905 28.2428
1 12.7771 15.315 25.6797
1 25.528 13.5513 27.1248
1 10.7738 16.3163 11.8782
1 11.5399 22.6967 17.2244
1 8.48989 8.2186 21.0129
1 3.37568 2.75112 27.4219
1 27.0326 29.877 8.31592
1 2.71436 27.6921 8.84057
1 30.3858 8.13675 9.31262
1 16.1244 6.94298 10.3548
1 13.2148 8.34542 24.0841
1 1.67469 13.9111 29.7297
1 24.4185 23.9297 23.9004
1 2.71024 9.501 8.95874
1 26.9024 6.64882 5.98195
1 4.81957 1.27117 7.95192
1 2.4644 20.3497 19.4277
1 8.38859 2.90059 17.9478
1 16.913 12.0858 9.88009
1 25.6638 3.74399 19.4944
1 8.34777 7.95995 1.70574
1 23.3011 24.9564 7.40047
1 2.16627 6.45503 16.5403
1 11.6206 28.0461 1.91238
1 21.9353 21.4128 22.8189
1 25.3003 19.5092 4.69336
1 15.8514 29.8696 5.50709
1 15.1161 11.2054 14.751
1 16.7964 13.978 16.0757
1 19.5759 19.7451 15.0496
1 3.36214 17.9917 1.81167
1 14.4188 16.2468 15.6311
1 27.7454 17.3348 22.9937
1 3.63086 16.1768 12.9923
1 14.3545 14.5937 25.7197
1 11.1789 24.9144 28.9009
1 11.6634 22.1525 14.0569
1 21.6096 21.6338 7.19091
1 5.9534 18.0351 18.1259
1 2.32635 10.5599 26.2934
1 25.8071 15.9977 2.15402
1 4.85631 15.4876 13.8166
1 11.079 14.5626 9.61688
1 29.235 27.4047 8.29615
1 8.20847 26.5459 21.6644
1 1.91616 25.8399 4.83784
1 4.6572 21.2342 21.9298
1 15.3838 2.6165 17.7317
1 22.6069 16.8221 16.8402
1 27.3959 29.9005 6.05302
1 13.8974 28.0478 24.6397
1 28.3262 18.3281 14.4166
1 23.6234 12.9465 11.5021
1 12.4661 5.68945 24.4836
1 11.5969 26.214 18.7844
1 17.6057 8.37981 22.2542
1 18.9792 25.9003 20.5734
1 22.4483 12.991 18.8911
1 25.5343 15.0279 13.8004
1 23.2612 3.18928 12.8972
1 30.0512 15.177 28.9131
1 3.93827 29.7328 14.2392
1 15.7224 22.5652 16.4091
1 13.1923 21.0303 17.1594
1 2.56142 24.3671 15.9109
1 12.005 13.9751 0.55281
1 4.97903 13.6268 26.9553
1 10.7024 9.98387 25.3089
1 17.6769 22.5158 11.6012
1 22.268 27.9128 17.0123
1 9.6375 1.65781 15.3304
1 29.2209 16.5359 1.07952
1 10.5817 2.88612 2.56453
1 6.03743 25.4994 27.5707
1 11.3488 1.49926 5.76926
1 16.1939 11.8084 25.9265
1 21.305 13.0562 5.41433
1 5.28046 21.0733 30.4205
1 0.761939 4.21637 15.4755
1 17.9535 18.9315 27.8018
1 23.1243 22.2722 14.0404
1 1.40484 6.28634 17.9088
1 3.47484 28.123 21.8945
1 28.9885 3.931 18.2325
1 5.0847 19.6636 25.8589
1 7.876 23.9613 20.1376
1 0.605183 2.56499 11.2393
1 4.82672 13.5887 3.12733
1 15.0879 6.48983 6.90526
1 22.3804 17.2932 26.6684
1 0.516862 17.2659 16.5862
1 14.7936 1.14488 23.17
1 11.9351 0.829236 6.75328
1 12.8572 3.50463 18.4724
1 28.6262 0.766072 17.723
1 18.9747 18.2695 27.0704
1 10.9943 22.7496 29.9825
1 20.5761 6.38181 9.20447
1 11.9216 8.21972 18.4361
1 29.5986 23.5905 1.81065
1 19.2955 22.4398 15.2972
1 20.4079 23.4424 2.99632
1 15.885 17.216 19.0727
1 12.7138 22.7058 27.8419
1 11.5398 20.75 26.9322
1 19.1773 28.6197 8.77982
1 9.5333 4.84399 15.4525
1 16.4628 26.6373 0.162313
1 2.93752 5.67614 19.6847
1 28.1159 26.2508 28.4621
1 5.97196 5.19079 15.7318
1 28.2998 8.59627 25.3182
1 11.4338 16.7976 10.8323
1 8.06499 26.2651 1.18223
1 24.5054 14.697 16.7583
1 23.7368 19.0243 19.802
1 22.7682 7.5316 5.9438
1 15.3326 19.0816 28.0522
1 20.6307 0.267724 16.1281
1 15.6527 7.84739 25.0534
1 3.24094 3.27652 2.64929
1 28.0819 0.466673 28.2331
1 16.2374 23.9006 9.74712
1 8.42323 0.838241 25.4975
1 4.08654 8.20339 3.48475
1 10.0856 28.606 22.4946
1 10.2139 7.09872 14.2523
1 14.8161 27.3813 16.6062
1 18.5933 21.3423 19.4143
1 5.37645 14.5253 16.9501
1 24.9007 5.46174 18.0408
1 21.196 24.795 2.16595
1 7.64274 14.638 11.1931
1 3.45314 21.6841 3.6748
1 19.4356 21.3134 2.3152
1 21.7696 29.5936 9.75842
1 23.5881 22.6239 4.7983
1 17.1273 19.6394 18.0273
1 7.79216 5.07615 24.9799
1 14.1291 8.9362 1.99187
1 22.8558 25.1919 0.884896
1 29.4594 11.1209 6.4281
1 28.5495 13.2867 8.9649
1 2.48505 7.72893 22.6706
1 28.4809 4.05284 20.7508
1 5.01818 27.8125 15.2641
1 23.2965 8.1041 11.5315
1 7.36551 12.9372 17.6548
1 7.64767 19.4948 5.44591
1 8.73062 13.4131 0.530363
1 25.6599 12.0325 14.2944
1 14.408 9.15959 26.9816
1 18.5084 10.8564 8.32377
1 20.9993 23.2808 23.3459
1 8.88848 2.22879 25.4582
1 5.30775 26.7591 22.9856
1 30.482 4.91418 22.2763
1 25.0188 10.0347 27.6183
1 6.79376 24.6417 6.33831
1 6.21278 0.873139 1.40585
1 13.8957 1.08401 4.91593
1 28.9092 3.92934 22.7627
1 20.8634 18.202 5.95854
1 27.1842 25.8043 7.67217
1 19.0162 13.293 28.7215
1 11.6292 21.5066 21.9629
1 17.0999 23.515 14.2678
1 9.69499 0.375631 12.5573
1 11.0354 27.1613 26.9237
1 20.7596 22.6186 0.567798
1 23.4987 23.2883 2.48663
1 6.55866 10.3108 2.64107
1 14.2309 25.2527 29.3831
1 9.38484 29.2222 19.3105
1 12.5273 10.269 17.4756
1 6.43566 9.64055 17.2108
1 6.12374 13.9135 20.9291
1 3.51235 1.37083 17.3715
1 7.56895 18.9563 13.1928
1 20.3719 3.42888 21.0976
1 3.67738 12.8081 2.52718
1 9.78255 23.391 9.5953
1 11.3752 16.4974 5.74044
1 20.9853 13.0598 21.5771
1 23.3031 11.223 15.9808
1 5.47289 4.27731 9.29234
1 5.73936 16.5784 8.65386
1 22.3431 24.0693 1.88564
1 12.3195 28.4616 20.2269
1 26.3101 9.77087 20.9949
1 6.61094 7.49276 23.1228
1 12.0839 2.48122 5.03057
1 6.2325 16.4845 10.1656
1 8.92525 8.3254 19.649
1 17.6681 26.7029 29.9016
1 16.6449 8.628 29.5635
1 24.2012 2.29083 19.9068
1 7.59564 1.73141 20.5159
1 6.81172 0.324721 29.5878
1 8.16934 9.11374 18.9084
1 -0.040073 8.368 27.521
1 24.6484 3.21519 6.12996
1 14.3555 6.58053 1.59165
1 27.5065 16.0671 10.8591
1 28.3782 29.4821 28.3309
1 26.132 2.71874 0.383652
1 12.8724 25.3584 10.1096
1 6.57636 24.4452 0.416753
1 4.39121 19.3037 30.166
1 18.6779 25.395 13.7053
1 10.7461 9.38402 3.18579
1 16.7823 17.1111 15.607
1 13.31 14.7835 6.15049
1 17.9796 12.8213 13.5616
1 9.68278 17.225 12.5537
1 26.0709 11.5324 12.1312
1 25.1228 13.2028 10.8145
1 16.6479 29.4857 16.9533
1 10.1485 2.76742 21.1973
1 24.2249 2.34326 14.8471
1 24.1043 13.3505 23.1955
1 13.9025 29.9958 18.777
1 9.16489 1.68076 16.8533
1 12.1573 14.7686 28.0122
1 14.7624 18.1481 19.0022
1 26.5712 16.1958 16.9614
1 16.4682 4.41905 18.8984
1 20.4996 14.7117 11.183
1 0.407718 18.4792 17.7515
1 28.3921 28.0596 2.04858
1 4.64551 24.966 14.1373
1 9.3996 15.8567 23.9439
1 15.2534 27.9528 6.04493
1 10.9345 26.3778 3.46676
1 8.85587 5.12859 0.899143
1 21.5919 25.9632 9.37261
1 20.2403 13.2055 17.9161
1 12.1378 6.57526 27.9035
1 21.3826 15.1265 22.4677
1 20.853 10.7019 17.9139
1 18.4911 27.9179 24.0397
1 24.5253 3.31453 24.4991
1 18.8752 16.765 11.027
1 15.1861 20.3459 10.2211
1 22.5315 11.4155 3.61764
1 0.501221 1.82478 9.82194
1 3.70709 12.7771 0.974749
1 27.2054 4.33928 24.1468
1 3.19988 13.3602 25.5682
1 14.8089 1.89791 12.9769
1 13.0993 26.455 2.67155
1 18.0064 29.3491 19.6327
1 20.5388 4.07924 26.5418
1 20.9684 15.724 4.96765
1 16.2191 22.3773 11.829
1 4.61168 29.2126 25.2047
1 25.8089 28.2281 16.443
1 3.0527 8.58122 23.7434
1 7.00861 29.1327 2.35214
1 11.2147 12.9905 21.8341
1 0.160036 21.842 22.2143
1 5.21003 29.0964 4.67546
1 14.3936 14.5478 16.1315
1 6.57405 1.03984 21.1154
1 27.7799 4.79024 21.6723
1 23.3914 12.6259 28.8959
1 20.769 1.78632 4.89608
1 17.3192 3.976 27.0825
1 18.1934 9.2133 24.2214
1 17.8045 26.4306 28.323
1 16.3861 25.8285 26.4075
1 8.34072 26.8851 8.89385
1 28.5695 7.04338 26.9997
1 17.723 18.5766 25.5877
1 5.83736 17.357 12.4655
1 25.341 17.8154 26.119
1 18.5093 25.6029 23.6616
1 30.3123 11.8868 2.14989
1 5.64348 0.802141 28.6262
1 28.6179 15.0039 26.4722
1 4.73098 12.7181 7.57587
1 30.4061 5.75324 7.75325
1 20.6229 0.254095 18.953
1 12.601 27.6449 5.7783
1 20.1236 16.8592 19.249
1 23.5998 22.8665 10.7953
1 12.885 29.2133 19.3229
1 21.9987 8.32626 15.2386
1 2.0533 15.978 2.05875
1 12.6515 13.0701 23.8129
1 23.1952 19.6418 2.24264
1 17.051 26.1684 22.7081
1 28.0363 11.3043 3.35901
1 24.0986 1.31148 12.078
1 8.77078 16.8166 10.6135
1 3.8417 8.34726 4.85521
1 23.9633 22.0784 2.14529
1 22.1781 6.96435 2.46328
1 23.4459 19.1862 17.1874
1 5.40553 14.5408 5.77825
1 1.51309 24.522 30.0689
1 3.51489 18.3808 13.7866
1 10.0526 8.33489 5.53093
1 3.48692 8.33288 29.7028
1 5.83397 13.9034 15.0388
1 9.50435 26.61 2.84553
1 30.1925 28.0835 30.0423
1 20.8779 12.7873 30.3152
1 5.22941 24.4977 4.34687
1 17.4938 27.3595 13.154
1 5.11776 16.1816 22.3967
1 26.1614 11.8216 23.4039
1 12.1903 15.8363 1.76719
1 13.6667 26.5881 9.60085
1 15.2646 19.6329 13.0974
1 6.03039 28.2456 6.63644
1 24.7336 27.8512 19.5524
1 26.4654 6.91145 21.8727
1 8.67121 22.0236 22.8699
1 11.0637 21.4669 17.3376
1 6.44205 3.90474 6.28943
1 28.4864 24.1796 16.8274
1 21.531 9.05212 28.3996
1 22.2235 25.2974 19.6221
1 12.0911 16.3984 19.9333
1 7.33627 25.7437 2.39969
1 28.8593 20.1399 11.2011
1 21.4575 13.3163 2.65111
1 29.7232 17.9588 1.06551
1 28.4382 3.52339 14.0034
1 10.6788 1.40591 2.77401
1 9.90893 18.3778 9.11569
1 14.4964 1.2371 27.5251
1 6.87825 16.284 24.5879
1 22.2735 4.07089 19.4501
1 7.03476 4.51431 15.126
1 11.6588 20.6764 6.41789
1 19.9385 21.8177 21.56
1 3.50493 1.95763 28.5734
1 17.5397 29.6267 11.2431
1 18.0666 19.9062 23.4972
1 1.50177 22.4537 21.9225
1 4.48363 13.6713 24.7502
1 24.651 26.6829 3.44949
1 29.764 12.1699 26.2326
1 17.3409 22.5814 21.6385
1 9.31699 5.4871 7.55366
1 21.4336 10.0291 25.5766
1 27.3853 20.6261 5.10972
1 24.5646 21.7079 22.7816
1 9.66408 27.3044 24.6475
1 17.684 25.4832 2.18206
1 12.7375 20.957 3.31372
1 15.5731 20.8485 21.2576
1 5.24656 2.85255 20.3182
1 10.0482 25.0169 15.322
1 26.5059 19.5171 23.1899
1 14.8905 17.4388 25.4441
1 2.25438 21.6683 17.1406
1 27.2356 26.5944 8.95554
1 4.85952 5.87272 22.5002
1 19.0832 7.37804 12.9705
1 20.2012 9.30807 10.334
1 24.9882 0.273298 9.89879
1 13.3948 19.6959 7.90006
1 19.4637 8.62351 13.6526
1 3.74515 19.1584 1.17574
1 12.1787 4.94768 2.00279
1 23.8604 27.3245 10.7943
1 6.24013 21.7463 4.81137
1 17.8291 24.0263 21.9722
1 29.9342 6.18888 12.5112
1 14.6968 7.30604 18.355
1 10.2459 7.89801 29.6648
1 1.53546 27.1683 4.85913
1 19.3245 7.99092 28.1489
1 7.29276 12.4574 13.0715
1 4.1987 8.85895 12.3673
1 22.7695 9.69733 25.0739
1 13.0075 18.4884 10.9492
1 29.6181 6.26357 10.8506
1 20.2235 12.7345 9.03676
1 25.2934 19.3555 29.8643
1 22.4436 17.0375 20.0625
1 0.484353 8.88674 0.559444
1 8.52507 1.07867 13.0185
1 7.01641 25.0265 8.86639
1 25.1367 30.535 5.4823
1 16.1087 24.3338 0.509333
1 11.9711 7.45628 4.61773
1 11.6505 22.3039 8.30333
1 22.0671 24.97 10.4009
1 15.3228 9.01292 11.8962
1 15.0421 3.96846 24.2552
1 9.69231 1.29289 23.3541
1 19.4819 1.99723 5.58292
1 15.6143 7.35798 8.03877
1 6.43494 15.4261 5.46124
1 2.86514 25.8815 27.038
1 17.575 25.8815 9.22084
1 23.5641 1.98006 13.3197
1 11.022 10.9352 1.29167
1 7.56525 25.4317 30.2599
1 1.66993 20.9606 26.674
1 8.77174 29.4482 23.9206
1 11.4796 23.5761 11.8734
1 2.7035 10.5549 6.18341
1 11.4701 7.23327 13.2801
1 24.9594 27.0702 0.834427
1 10.8016 24.8501 3.14444
1 6.81845 13.1548 25.7577
1 6.15949 22.4606 13.579
1 28.0197 15.9396 7.88866
1 10.0317 7.10262 3.221
1 26.3653 15.5235 26.5372
1 2.14861 15.776 22.4148
1 28.0599 25.632 1.99688
1 7.16964 10.5439 25.742
1 28.9024 20.5241 7.92358
1 3.51119 22.0124 7.00369
1 16.5472 6.77907 20.1048
1 1.85261 8.17965 14.0171
1 15.5532 4.92948 21.3226
1 22.4316 17.3059 4.61076
1 9.4408 20.7188 3.31807
1 28.7308 6.3183 3.8858
1 16.8951 5.50007 3.49229
1 22.5827 5.20036 4.3145
1 14.8326 26.9487 18.0126
1 6.65359 21.1268 9.6515
1 6.50058 15.4711 2.49888
1 17.8579 18.4258 17.6047
1 14.2659 23.1354 14.4038
1 8.73148 23.2077 24.4987
1 7.49925 4.09431 26.4749
1 12.6092 15.9435 18.6954
1 11.574 0.344666 21.8013
1 6.942 21.9221 20.337
1 6.95445 29.3695 7.71811
1 16.7581 2.46343 22.0192
1 30.188 20.4085 7.89465
1 16.4679 10.5607 25.3984
1 9.26749 0.540199 22.0837
1 28.3476 6.9236 20.271
1 8.24128 21.4318 2.72687
1 12.0909 17.5235 8.33837
1 25.3901 2.34895 19.2491
1 7.79547 7.28344 28.7026
1 14.2036 24.9492 19.3556
1 19.1257 28.7308 21.5394
1 21.9919 21.2837 2.70511
1 3.53384 5.54855 29.8553
1 12.7145 6.92194 10.4473
1 19.2021 26.6696 0.605685
1 4.23068 2.52169 13.7639
1 21.126 8.38314 26.0105
1 10.7926 7.36271 1.72889
1 23.5963 0.952067 1.38068
1 28.3488 5.92834 17.1959
1 10.0921 10.0402 28.8558
1 6.60326 8.93024 11.2545
1 18.2244 22.1139 28.4978
1 24.2222 8.22699 23.7493
1 15.1451 4.17551 10.1325
1 19.6382 3.76322 12.2743
1 19.8768 19.5674 7.9063
1 15.1458 14.8539 26.6299
1 27.8776 8.68559 18.5888
1 17.7297 14.0644 13.409
1 0.759436 9.54305 29.5994
1 14.3133 15.2257 1.10281
1 2.73083 17.1065 10.8623
1 19.5682 10.5537 11.5888
1 4.25421 9.9732 15.4829
1 1.67163 6.08734 4.12046
1 19.0857 9.19639 17.095
1 8.58486 10.8199 25.6214
1 8.024 11.2878 12.8899
1 1.47452 3.21128 20.4166
1 2.82397 10.4649 0.157649
1 23.7667 11.9029 26.3913
1 6.78146 15.2611 10.0876
1 8.04274 19.077 23.5526
1 23.8886 8.63003 20.252
1 1.80996 29.077 13.6104
1 14.2602 21.3202 5.14094
1 2.21726 10.9851 3.62663
1 11.3398 17.3753 17.078
1 1.76864 5.92413 28.1456
1 29.3634 7.60554 10.4598
1 3.46433 13.4307 15.1095
1 13.5804 3.75958 20.7646
1 21.7871 17.4518 22.9883
1 23.2571 4.20909 4.66278
1 23.7085 20.4549 10.9818
1 26.1388 17.4002 8.12828
1 21.5962 28.2596 27.7689
1 24.1716 3.98075 22.3409
1 1.86298 10.5402 16.0147
1 11.1796 2.68236 13.5539
1 17.2278 12.6868 11.1746
1 3.84295 12.5498 21.2523
1 8.83888 16.9403 4.51879
1 6.76053 20.3898 20.391
1 19.9487 19.3308 18.7057
1 13.5531 7.21846 14.5584
1 17.0228 24.4246 3.31032
1 26.8735 4.50079 19.0743
1 3.79218 2.77464 25.9547
1 23.074 7.91734 21.2749
1 16.5458 5.88932 19.0952
1 19.4262 5.82258 19.0871
1 2.97063 14.9937 1.9207
1 18.5851 8.97583 14.8566
1 24.2817 5.70176 20.7464
1 15.7263 14.9387 3.69115
1 15.2656 25.0207 10.2074
1 27.7729 17.1909 25.5588
1 6.78878 29.8954 14.9446
1 11.5755 18.5602 1.14421
1 23.2543 27.0674 6.08775
1 2.9612 5.96304 3.01198
1 19.1315 11.7488 16.479
1 18.5673 24.1615 23.3456
1 7.80967 17.3083 2.33675
1 10.21 2.61785 29.5927
1 30.1619 29.8884 21.4306
1 6.04303 2.34919 25.4753
1 28.2956 14.9036 22.293
1 27.3126 13.3323 7.89271
1 4.81097 18.774 7.27011
1 18.9071 20.8505 28.9844
1 30.1273 28.7988 5.29887
1 22.818 9.17218 22.1679
1 7.50895 15.5474 13.7798
1 29.9974 8.65587 22.8616
1 1.46727 1.8996 1.60157
1 10.3483 26.4475 5.9054
1 20.9373 17.4266 8.29001
1 22.357 6.15525 16.319
1 5.08125 28.2364 13.8773
1 21.5598 24.0936 27.6488
1 20.3311 8.67937 27.4419
1 24.3835 20.4734 22.6553
1 6.29871 28.1436 16.3119
1 21.5819 6.05995 23.2575
1 0.885279 24.8976 27.9756
1 13.9674 19.8337 10.7944
1 21.9877 15.6598 2.35351
1 6.96206 14.7425 29.666
1 11.3111 16.5103 8.10659
1 26.2688 10.4541 0.816628
1 20.9139 24.6587 14.8266
1 5.11557 20.3108 2.6878
1 6.59366 7.25747 29.5969
1 20.7047 29.7547 4.99264
1 25.2823 6.1302 23.7279
1 4.87162 11.9038 28.6537
1 2.37557 11.2914 28.335
1 0.916344 9.32776 2.19827
1 8.63792 19.6221 12.4356
1 1.13755 15.6422 17.7072
1 19.1627 1.99088 26.487
1 26.5321 5.97805 29.259
1 4.31401 1.37497 25.1243
1 19.4933 6.52856 4.74211
1 26.6668 29.8874 14.4962
1 8.87873 20.825 12.0765
1 26.5732 6.28013 2.54046
1 24.4476 22.8037 7.76311
1 11.8624 10.5696 16.0499
1 1.32812 11.9028 1.15561
1 24.7984 13.1482 21.5391
1 9.28478 26.9239 27.4084
1 7.04453 24.4823 16.0393
1 20.4437 11.8693 22.5672
1 16.0762 22.4799 25.0605
1 15.6113 20.9165 29.6931
1 0.440474 30.061 1.05192
1 3.35358 0.551354 19.514
1 28.1914 26.4816 15.0572
1 10.73 10.3497 19.1062
1 11.9761 5.96341 12.6844
1 13.2829 7.77104 1.01565
1 21.4924 4.85085 13.5724
1 30.0583 28.9783 8.91501
1 5.13068 1.80729 1.10366
1 4.53973 9.99178 10.6505
1 9.08872 23.9065 5.47666
1 12.4917 24.4694 14.5803
1 15.5486 12.7111 20.3899
1 26.2511 19.6206 11.4288
1 1.92281 5.27676 18.8749
1 12.6408 12.826 26.8012
1 2.90644 16.4421 24.8497
1 6.03791 2.1092 12.6443
1 20.4709 18.6374 11.1012
1 12.2845 11.6936 15.3463
1 26.8232 18.5801 14.4251
1 19.0144 9.44083 7.57574
1 0.892248 9.59592 24.6258
1 6.4067 9.68252 27.8579
1 28.0001 19.5371 1.41715
1 10.6596 27.1686 21.7332
1 27.6125 16.1946 20.6018
1 23.9002 28.0218 1.26634
1 3.32287 24.665 25.4605
1 26.4474 7.1198 25.8891
1 6.55014 24.3301 19.1457
1 13.5338 8.77658 7.37389
1 5.7468 15.7757 19.2012
1 24.9779 5.39481 4.81572
1 26.1506 22.9627 5.13911
1 26.8296 24.4865 14.5031
1 1.06103 17.7147 15.1591
1 12.8995 12.4622 4.48269
1 18.4675 29.7766 14.6389
1 14.6072 19.1447 20.3491
1 6.36556 10.5772 7.6708
1 30.1991 0.266102 22.7923
1 18.1017 15.987 16.2389
1 3.9261 22.7248 1.2914
1 10.8551 16.1646 9.45655
1 27.3514 1.64931 12.8865
1 2.97519 11.8468 18.0638
1 11.2464 25.1218 11.7797
1 21.7049 20.334 29.5719
1 30.0522 22.7727 23.2159
1 23.3727 8.49289 24.8626
1 22.5911 11.5831 28.9177
1 17.0633 10.6874 14.4959
1 18.2875 19.3254 4.71353
1 21.7191 29.0307 16.2546
1 26.9044 8.94028 8.23597
1 7.94502 28.7545 4.38334
1 21.6448 30.4885 29.6088
1 19.561 11.8312 20.1726
1 26.2181 9.5183 24.7034
1 29.1773 11.3502 9.9141
1 29.337 17.681 11.0037
1 10.6005 18.2781 27.4618
1 24.2668 5.56554 16.65
1 9.91677 4.194 24.1484
1 7.88544 12.4967 1.4711
1 9.87312 14.8537 26.0292
1 29.2466 6.9445 17.6832
1 29.2501 16.7453 16.4349
1 4.16274 6.59481 27.3382
1 22.8834 29.4733 13.3584
1 11.5041 7.84153 27.5076
1 7.27016 10.137 10.7225
1 7.69694 18.7887 22.0655
1 18.0449 16.6438 21.7842
1 23.6446 4.39582 13.5064
1 23.9198 7.2791 28.6891
1 25.5702 10.9499 28.5657
1 8.37401 4.57086 15.9402
1 20.3649 25.4558 29.257
1 25.0868 19.5404 1.67523
1 12.5957 28.3095 21.6461
1 14.6625 23.4771 21.6924
1 24.5431 23.2012 26.6608
1 9.40601 16.8044 9.29344
1 5.79971 29.8475 2.00064
1 1.10566 22.1048 25.5319
1 25.0628 2.11315 11.5147
1 27.5018 23.2417 14.071
1 3.58943 25.985 13.7484
1 16.4391 13.8755 20.655
1 24.4785 18.6251 29.1747
1 16.0823 22.9153 4.81371
1 14.6355 22.3573 15.5262
1 24.8175 21.0765 19.9902
1 16.8168 24.5327 28.0806
1 16.0655 26.7121 23.9479
1 20.1394 22.8991 22.07
1 20.4556 0.143605 24.9505
1 7.89736 10.0079 5.90734
1 25.3272 10.5789 26.0057
1 3.51825 5.73118 16.3022
1 4.59392 6.51366 8.41367
1 7.00957 18.4911 9.94451
1 5.5924 2.71016 28.1641
1 30.5864 6.07966 28.1941
1 26.1547 10.3406 23.4337
1 14.7595 18.9864 2.11971
1 4.47943 13.922 14.102
1 13.0664 14.2256 7.63666
1 18.1067 0.733471 28.2322
1 1.44924 1.12582 25.2291
1 23.1438 10.7714 11.9691
1 3.27108 17.0857 28.2861
1 29.5863 1.66012 6.30733
1 22.7225 30.0242 26.0404
1 6.71726 11.4473 19.6338
1 21.2808 23.7458 5.93777
1 29.8532 22.7933 10.8483
1 29.5955 5.35955 4.45568
1 30.2379 1.78042 22.3037
1 11.5691 30.577 13.6756
1 8.93745 25.1552 19.5612
1 4.10923 14.6436 29.022
1 16.0389 15.0702 18.1466
1 21.7749 20.4272 16.3911
1 17.8472 4.15029 18.2026
1 14.8169 17.7356 6.04063
1 14.8772 8.86347 8.06705
1 8.83243 6.88634 17.3059
1 1.87754 25.7617 28.2961
1 13.636 4.84455 4.68531
1 0.490146 2.0942 5.42892
1 13.2351 2.49103 7.8495
1 3.89 6.92166 3.00848
1 9.4741 17.7871 15.0795
1 15.7465 3.45595 21.5452
1 12.8549 26.9246 24.5567
1 28.9817 26.7026 1.84929
1 1.39088 10.9822 27.3798
1 0.145486 18.5034 20.3965
1 6.94866 15.0275 23.8679
1 0.252575 28.5102 0.977729
1 4.04465 19.8728 7.17521
1 10.6862 6.9041 10.7983
1 17.9424 13.0107 17.9943
1 16.9341 9.58499 27.3145
1 27.4131 29.5095 20.8091
1 26.6531 17.5329 17.6664
1 15.2429 27.6427 11.03
1 19.075 24.8987 19.3345
1 2.47306 25.9792 22.5244
1 4.40562 24.1303 6.27306
1 22.438 2.37457 21.6043
1 27.1954 8.1321 22.6761
1 28.1525 0.750759 1.06465
1 26.1576 27.3554 1.24705
1 23.9614 10.1356 22.1591
1 25.6158 0.63367 21.2458
1 17.478 11.9263 27.8958
1 5.68019 13.3204 6.86001
1 29.7347 12.626 22.675
1 8.64707 21.4246 17.9376
1 11.6132 7.78108 21.3542
1 4.86082 2.87224 16.75
1 22.0194 28.8479 7.22305
1 21.1754 17.0013 5.34197
1 14.7868 16.8752 23.8209
1 24.3482 14.1591 26.8156
1 16.9174 20.7064 5.97038
1 1.14219 5.62195 8.7469
1 24.2486 1.8329 3.50888
1 21.5586 0.474447 5.26256
1 22.3142 7.28326 26.6857
1 23.3327 16.3416 29.6888
1 2.56041 26.7038 20.5546
1 1.6468 5.86669 5.74399
1 12.4842 12.8725 22.3947
1 2.62149 4.16953 7.08246
1 4.18624 4.23518 10.0576
1 4.56878 21.1435 7.04474
1 13.4601 27.0591 5.03589
1 16.1007 11.1107 2.23314
1 24.5792 16.0186 4.80759
1 9.72673 5.63849 22.7076
1 4.34684 15.3134 2.12607
1 24.9669 5.00546 13.2201
1 7.88151 29.7432 3.46116
1 28.8127 11.1865 5.30995
1 24.2957 24.105 20.7681
1 19.4244 22.7886 13.9794
1 12.6053 8.10597 11.3686
1 27.239 23.8384 29.1074
1 26.4146 5.28271 17.8945
1 22.4265 21.2919 18.7873
1 14.492 23.5419 6.50636
1 29.8568 25.0661 7.40764
1 28.5264 28.9103 3.44164
1 0.291456 11.9373 7.04528
1 28.0422 1.3298 25.2455
1 3.79972 26.8831 15.9197
1 29.0815 19.6523 14.2594
1 4.67357 14.1382 4.65781
1 2.29053 6.84076 6.66288
1 4.21989 18.719 27.4662
1 4.98982 15.8869 29.7626
1 16.0389 8.54297 3.86546
1 16.5862 3.58405 20.3646
1 10.9381 29.3954 4.37791
1 28.0275 1.77124 23.8919
1 5.45634 1.99142 9.05016
1 6.80021 27.3091 17.1633
1 1.70125 19.7134 22.0633
1 18.607 28.8471 15.7456
1 13.9914 23.7656 29.8256
1 5.65479 18.6501 19.5092
1 16.8751 29.5339 3.74963
1 11.109 5.06196 26.2396
1 14.811 10.4931 9.99074
1 21.6568 2.07708 22.5964
1 24.1752 25.3652 3.71022
1 21.443 16.0368 7.82912
1 24.3616 4.24944 5.108
1 3.60917 28.7614 24.0926
1 6.59698 29.552 26.9594
1 7.52597 16.956 29.7985
1 11.8627 15.88 29.0613
1 24.6812 0.425582 8.28941
1 12.309 3.09557 8.67144
1 0.747339 23.7702 21.3981
1 13.1251 16.1699 29.6486
1 13.6938 18.8146 21.4081
1 0.552799 4.02443 29.8174
1 16.619 6.53518 23.2519
1 29.3767 26.1544 18.031
1 13.7367 6.77672 27.2199
1 17.2278 22.5745 29.452
1 14.1659 13.4659 24.7605
1 19.2493 20.4794 25.3086
1 25.7385 16.7451 29.4268
1 24.6982 29.5345 4.77407
1 26.2366 25.3809 29.8634
1 22.7572 13.8003 5.36864
1 17.7015 16.8714 20.0843
1 18.0093 4.56235 24.4655
1 19.0226 1.92111 0.23019
1 3.46775 3.26933 22.9325
1 2.4056 12.4873 20.7323
1 5.70008 7.46418 5.6205
1 30.2666 6.77977 15.3034
1 25.5952 4.07089 1.73688
1 0.759972 25.8108 15.5375
1 13.8972 24.3136 10.273
1 9.87484 13.0124 22.7389
1 12.741 29.5814 22.4366
1 29.1843 2.47743 23.2793
1 10.6275 6.43136 29.8072
1 7.12585 19.4921 29.1392
1 18.4982 3.04381 7.77901
1 14.9259 29.6376 21.7897
1 7.85938 21.3905 30.1461
1 7.64386 24.5803 24.7688
1 26.5853 3.21198 8.1023
1 13.0095 5.45105 8.50829
1 0.889264 8.33337 11.8723
1 22.6705 26.4728 12.524
1 26.344 10.637 18.5526
1 9.07307 27.7163 2.52335
1 25.9643 1.26631 19.9131
1 11.894 23.5078 25.9401
1 12.1753 11.0294 2.40813
1 11.4721 29.1131 7.36579
1 8.09903 13.5176 8.56798
1 2.71142 25.155 18.4464
1 8.8946 1.74472 20.8956
1 14.6115 15.0284 11.3833
1 5.48446 12.8404 27.807
1 28.6935 7.95531 4.15545
1 12.2745 10.2599 13.0122
1 25.0559 2.28204 17.6337
1 9.93877 17.8472 17.8326
1 5.17084 23.5295 23.4415
1 10.5947 9.69831 1.76894
1 6.34468 10.8049 16.1939
1 1.71877 4.34072 25.5383
1 0.853447 24.1771 2.23252
1 9.48613 20.7012 14.4244
1 22.3314 16.244 22.8577
1 17.0336 1.38353 21.0594
1 25.3303 30.2338 2.52162
1 0.943562 24.6905 4.49338
1 16.1127 22.0662 8.44994
1 19.7393 29.8934 1.65677
1 22.9868 21.2673 27.5199
1 16.533 11.3748 12.2087
1 3.04773 30.1363 23.5508
1 5.06968 5.03332 23.8574
1 15.5118 26.6997 20.3103
1 3.09826 11.229 16.9228
1 16.5666 19.8386 23.4984
1 29.8511 15.2326 25.4944
1 17.5808 15.1603 0.390543
1 13.8527 26.5612 14.4171
1 12.1003 9.49879 15.105
1 2.04066 28.3189 24.7726
1 4.16039 3.32154 11.0033
1 21.0232 21.5595 18.8891
1 6.69213 3.81866 13.941
1 24.4794 4.3442 7.32879
1 1.78198 18.939 7.74304
1 6.31871 5.01242 29.8988
1 22.2577 29.5637 20.7277
1 17.6787 20.3131 13.7941
1 6.89069 27.8668 24.7649
1 4.92935 7.9063 8.18326
1 9.42399 29.7068 16.7644
1 15.6129 23.7918 24.8632
1 15.6222 25.1591 3.63825
1 11.7792 8.12162 24.757
1 5.6617 22.2865 24.2744
1 6.98928 27.7105 27.536
1 16.0054 28.0906 9.99814
1 18.0123 1.40899 29.7351