4096
Atoms. Timestep: 1500
1 19.6882 6.15789 3.75504
1 1.51144 23.3671 12.8835
1 6.70658 22.1137 9.67272
1 16.3309 24.5976 4.82406
1 18.8829 6.55674 10.2038
1 9.2113 26.0646 23.5695
1 5.14618 20.0097 8.02849
1 30.2641 30.1973 14.7502
1 24.7376 18.1174 19.2233
1 19.9607 19.6555 3.89946
1 26.369 22.6917 16.1176
1 29.0137 22.5772 9.72159
1 27.0277 18.656 14.4851
1 5.08884 15.0372 13.7785
1 15.497 11.7713 9.80808
1 28.1367 3.87008 21.9759
1 10.2176 19.3253 8.48882
1 5.69661 25.0529 0.396398
1 0.105183 16.5406 5.18183
1 9.13655 19.5692 19.6052
1 14.6818 13.0552 24.5071
1 29.0276 28.4573 24.9246
1 6.2274 28.9509 26.7955
1 16.7392 24.9653 0.720575
1 14.9195 25.6679 18.8406
1 29.8879 10.6715 17.0589
1 30.3745 14.4576 20.7099
1 0.218351 8.16074 22.619
1 4.73831 28.1414 6.89122
1 4.92682 19.8577 20.7677
1 5.55673 25.8894 4.49247
1 11.7648 21.7841 16.257
1 12.7708 8.89321 0.781337
1 13.1218 27.6055 3.23722
1 21.2472 30.047 1.27711
1 10.8835 6.27362 20.3128
1 17.8862 12.5173 10.0522
1 5.83848 21.4648 1.65201
1 27.6446 2.35225 15.8354
1 21.7729 1.1375 28.7278
1 28.3069 18.782 7.68635
1 14.2686 20.2076 3.10653
1 17.2579 7.57022 8.41621
1 13.2969 13.9165 12.696
1 14.7267 12.8153 7.58286
1 20.1415 25.7549 15.3844
1 25.8447 9.58423 13.211
1 10.6573 29.3403 21.5463
1 24.0626 7.49511 16.8428
1 22.1206 0.575769 1.93196
1 26.0816 1.09895 29.0424
1 24.5003 14.5597 29.2768
1 26.4171 0.469903 19.1037
1 15.2179 12.3333 22.8794
1 27.5422 19.4821 26.0001
1 1.31837 10.7264 10.9848
1 5.19386 8.02612 23.0122
1 9.29589 6.52038 1.06837
1 22.798 21.2629 27.3125
1 29.7412 2.43547 17.1019
1 5.23094 6.98954 0.261654
1 0.615042 25.0598 8.03691
1 4.15965 11.7194 4.25645
1 20.6521 30.2494 13.8958
1 2.61894 15.7153 18.3949
1 23.6729 0.14213 19.0101
1 28.818 9.13206 8.38219
1 19.0046 16.5318 20.5705
1 20.8705 11.3843 8.81076
1 12.0083 4.38418 0.245253
1 2.64381 5.07617 28.1182
1 3.57014 2.49384 11.7214
1 14.5043 26.7994 5.57005
1 19.5283 2.60854 6.34384
1 2.36254 21.6513 14.7254
1 26.0998 15.3781 5.0928
1 8.66191 23.1104 13.284
1 19.384 26.7815 9.25027
1 9.49022 30.1971 1.99796
1 16.631 7.12422 17.1926
1 10.0646 7.36487 7.19439
1 8.1161 25.6789 22.2669
1 13.157 12.7216 9.69919
1 7.20328 28.3281 28.4458
1 22.3954 18.7942 2.73065
1 8.68463 5.36854 12.9872
1 13.2335 18.8937 13.3367
1 28.2908 25.3354 14.3601
1 24.7642 19.2716 0.227737
1 28.2777 27.6704 3.81852
1 18.3276 25.6841 1.20206
1 4.87114 11.2086 17.662
1 4.55541 27.278 24.2276
1 9.16747 24.1288 21.01
1 7.58905 19.3483 15.8779
1 18.9014 1.11764 22.9688
1 1.20911 6.21733 28.6698
1 21.5057 21.1915 5.12253
1 2.1262 4.40252 6.82441
1 25.0506 0.602725 16.9521
1 10.7695 11.5935 7.0705
1 14.3354 24.9258 26.9812
1 10.7478 17.9514 11.8608
1 2.90821 30.2714 2.29796
1 9.60905 11.2089 1.42438
1 25.9804 9.96262 28.5864
1 27.4313 19.9204 16.3485
1 7.8169 13.9994 21.1069
1 20.1769 1.96075 11.9378
1 20.7409 25.0632 0.749531
1 29.5317 0.812733 15.6381
1 8.83215 12.7128 9.37469
1 9.5217 15.5986 8.52264
1 13.2793 24.639 13.8842
1 16.6313 25.6948 8.00117
1 -0.031525 15.4971 28.8115
1 7.83614 13.2499 16.185
1 5.31971 24.2453 24.4966
1 18.8726 9.08914 12.3072
1 2.88474 15.0714 6.52239
1 13.4885 24.0127 3.31374
1 29.8525 20.0274 3.42088
1 27.8677 14.3002 27.9114
1 10.6459 4.12551 5.37434
1 29.5894 16.0766 30.5272
1 27.237 6.02745 14.9261
1 17.3501 25.3399 5.38901
1 25.6176 28.7289 13.1457
1 27.2822 30.3221 27.1815
1 20.6508 24.7037 17.1976
1 21.214 29.0518 29.0046
1 8.10488 17.2157 12.8083
1 10.1701 1.83279 20.7928
1 14.3791 18.8132 25.7027
1 16.91 14.887 6.82178
1 8.86662 8.44234 24.1548
1 14.8364 1.59485 11.5856
1 18.2542 18.7575 8.30473
1 24.2045 12.105 29.8799
1 22.447 23.5611 24.3566
1 17.8729 13.7525 13.163
1 18.5479 8.59128 11.1296
1 18.1095 6.89294 27.1432
1 12.4348 4.57896 2.54478
1 14.8336 8.94331 25.4381
1 7.44283 18.4825 27.1549
1 28.7167 24.7351 10.1662
1 0.293475 25.8192 11.0548
1 16.3069 24.1664 10.1276
1 5.20529 11.3627 11.2976
1 17.6415 26.878 7.3735
1 19.2208 5.09408 26.4576
1 16.6947 26.1706 16.2228
1 1.72201 23.1538 26.2063
1 2.4295 11.2221 7.63099
1 6.99868 15.8593 0.702294
1 1.95592 16.401 15.6021
1 7.85504 7.11517 7.45513
1 17.5276 3.13327 12.6239
1 27.0212 12.0416 25.1892
1 28.3781 3.65383 2.26912
1 20.8654 29.8864 5.69324
1 8.01756 6.62073 12.4517
1 18.7175 28.2649 27.4796
1 25.5898 3.76375 14.6743
1 3.03215 8.94729 14.8342
1 1.41921 8.39613 10.8245
1 7.14829 25.339 5.72962
1 10.7515 12.5877 18.7188
1 4.03466 1.24449 10.8146
1 28.4532 6.04002 29.5117
1 17.0154 23.2638 4.1161
1 21.9121 9.80014 22.5071
1 29.2127 6.37518 7.90107
1 5.65693 20.902 2.88758
1 2.42498 24.0723 11.1049
1 29.4636 2.72509 26.4953
1 17.4289 23.9297 24.2158
1 3.18322 10.4045 28.9328
1 5.28761 9.514 26.5048
1 3.75131 2.70298 2.83064
1 8.78391 20.7794 17.8115
1 21.6897 21.3594 7.4189
1 3.36415 17.5054 24.0558
1 21.024 3.57348 29.2487
1 10.2153 8.21866 3.16903
1 16.2455 16.7272 5.68525
1 12.0823 3.92294 27.2522
1 16.5225 1.41849 15.1765
1 11.6089 0.35238 16.9007
1 29.2588 5.15495 14.232
1 6.79757 20.8282 10.6181
1 10.687 8.79422 16.9754
1 15.4097 9.63557 16.1
1 18.7458 17.2307 2.76589
1 11.4522 9.84443 11.9529
1 6.75402 28.37 17.5106
1 28.3812 22.6719 20.658
1 11.4477 18.6296 6.55195
1 2.4686 26.151 22.6064
1 2.70836 9.95082 12.4982
1 20.4524 14.7836 27.3167
1 30.4666 22.417 9.14656
1 7.24102 4.47575 11.446
1 8.99843 18.4195 5.33572
1 19.0365 30.1275 4.4726
1 15.6505 15.4708 14.2445
1 3.62403 2.21958 23.8752
1 4.65254 22.2355 19.5732
1 26.5556 6.10987 7.18351
1 20.5881 1.67832 9.67655
1 27.5268 19.278 4.08243
1 28.7048 9.26503 25.2613
1 8.23741 10.1145 22.5996
1 12.0245 5.42924 15.3778
1 26.938 16.2214 0.179659
1 11.1547 22.5006 19.6492
1 8.61134 12.0845 29.6394
1 18.6516 17.4572 1.59382
1 22.5736 23.3638 10.0666
1 2.30858 19.6099 0.944775
1 6.41269 26.9742 8.79041
1 24.0507 4.27504 21.5617
1 9.03674 26.8875 30.2062
1 5.85978 16.6589 0.616078
1 18.663 16.0112 17.9365
1 0.724783 5.93175 1.48805
1 28.6494 17.3554 13.9394
1 3.26216 16.7258 16.3017
1 3.71391 4.44673 3.09247
1 17.7367 30.4758 10.2367
1 25.3385 18.6781 12.73
1 25.5802 10.1386 30.0944
1 0.381144 13.2634 5.93773
1 17.0252 2.11588 6.22896
1 13.6149 14.2616 16.2384
1 8.6323 11.4008 17.9307
1 29.4981 12.1518 20.0052
1 10.9578 9.74081 25.1559
1 27.9278 2.81782 20.6914
1 9.60231 18.1217 7.89528
1 7.95113 15.9468 8.56887
1 1.33485 21.4267 20.1167
1 0.824766 21.8565 17.3578
1 25.563 18.3349 4.14633
1 8.48791 8.99668 8.50088
1 9.84346 21.4575 7.07336
1 1.90159 23.4495 2.09237
1 26.3534 16.3233 10.2177
1 13.4611 27.1369 21.983
1 20.7343 8.76754 17.9861
1 7.32239 6.44566 29.7688
1 9.39492 29.015 17.1785
1 17.8107 10.5564 15.2258
1 2.25976 16.5425 3.12978
1 3.97244 30.0831 26.4734
1 25.6763 24.109 2.6847
1 29.9515 19.8318 9.32558
1 0.380435 16.7148 0.948836
1 6.28709 2.90223 25.8054
1 2.85007 14.8932 21.1877
1 3.59515 2.97117 18.817
1 3.57572 3.64905 22.1127
1 16.2785 9.7849 8.96956
1 15.7501 22.6524 27.9716
1 23.5144 1.7186 27.3346
1 20.7565 6.3421 25.211
1 9.02408 5.61942 26.4344
1 11.8289 3.54177 11.5778
1 2.47001 14.245 27.1912
1 26.144 3.33184 2.75003
1 19.3433 23.0033 22.0265
1 20.2432 25.6638 22.6086
1 14.8185 21.2488 1.91672
1 5.65804 5.73529 16.0426
1 9.55771 24.208 29.7201
1 6.13399 7.40361 25.9758
1 20.6908 30.0664 19.2122
1 28.3734 28.9765 12.6452
1 14.7621 0.651142 29.9523
1 2.45289 18.0613 17.8865
1 3.21764 18.2078 14.3786
1 0.0799971 7.22808 4.74866
1 18.9789 29.0696 26.5078
1 22.2696 9.61396 5.95892
1 28.1236 25.3591 25.5359
1 26.3824 20.9615 8.17053
1 19.5862 3.79843 26.1928
1 7.37084 11.7263 13.1704
1 3.00174 7.4743 15.3524
1 8.1888 27.3911 15.7099
1 14.8994 15.3426 25.0836
1 1.87772 28.4588 29.2535
1 14.7517 6.35757 21.6792
1 1.53721 19.4766 2.10092
1 12.485 17.9215 13.6632
1 16.147 5.39028 2.68815
1 0.410216 7.97193 21.062
1 18.5886 7.83136 15.2688
1 10.8748 5.13966 16.0596
1 28.7043 27.9519 10.6238
1 8.16975 19.8783 12.3513
1 23.3456 24.5226 7.33467
1 10.2272 12.7525 9.16938
1 26.0884 24.9163 24.1019
1 9.61197 27.934 11.5207
1 8.55696 28.5807 12.1331
1 0.730133 2.52454 5.81251
1 18.5455 24.0409 14.6349
1 4.17466 13.3922 15.9912
1 1.64711 22.4964 22.178
1 14.8877 15.9559 10.0386
1 13.3531 7.42213 3.90575
1 5.49169 0.457496 16.4485
1 26.1969 25.4001 12.5447
1 9.27194 7.36651 5.57406
1 30.5337 27.9624 6.99557
1 26.7396 9.63608 3.97073
1 5.12686 5.06005 18.9283
1 2.20863 28.4941 6.13622
1 29.3089 11.4647 26.4193
1 30.1048 10.8642 21.8243
1 23.3903 23.3757 18.543
1 4.42493 14.2581 18.4217
1 2.29653 19.3361 15.1485
1 29.3965 15.6502 15.1736
1 2.33502 2.60149 2.94182
1 24.6245 15.5541 0.205706
1 29.3219 28.2549 11.9367
1 3.9449 7.56653 27.4762
1 6.72821 26.3302 9.90543
1 11.2328 22.6915 5.68073
1 7.99291 9.38931 27.3953
1 30.1214 5.19616 22.7165
1 26.0588 2.87044 20.7481
1 0.900713 0.364872 22.6211
1 11.6805 20.4236 20.8329
1 16.7662 20.3 0.308618
1 18.6355 20.5514 5.63162
1 4.22451 25.0938 12.7946
1 14.9007 23.8134 20.731
1 27.5383 3.21819 3.2735
1 15.3548 4.55839 3.32944
1 0.590145 3.78195 24.7985
1 15.8718 23.1682 6.51785
1 17.6775 22.1077 22.8305
1 6.81846 10.5379 9.88564
1 1.59547 22.4845 5.4968
1 2.10659 8.69771 13.5752
1 13.1382 8.61512 3.27543
1 9.93986 23.1273 12.3577
1 16.9471 27.0018 10.1652
1 23.9084 21.0285 8.45815
1 12.4127 28.725 16.2752
1 8.236 19.8116 8.66277
1 15.9279 7.77433 2.35482
1 2.59156 30.034 20.0113
1 29.1621 28.4969 30.5645
1 8.00318 6.70265 6.11452
1 10.9919 26.7053 22.0611
1 26.2347 13.8201 4.31124
1 24.1672 1.65062 22.6985
1 13.8303 2.4598 26.8648
1 18.9667 11.86 10.0278
1 21.712 13.2257 2.50927
1 20.2597 17.4594 3.34665
1 27.8062 11.2857 8.38464
1 3.12511 4.63138 24.9954
1 28.724 19.885 13.6448
1 5.0631 28.1229 0.736894
1 18.1742 20.8327 10.2843
1 26.8197 23.1562 18.8231
1 27.3162 25.7454 28.9605
1 1.11092 2.31406 24.1747
1 18.1913 29.0176 18.6452
1 28.0904 19.9649 20.6932
1 6.88298 17.8559 4.51445
1 17.6276 24.2524 2.97659
1 22.4166 14.5247 15.9361
1 15.7249 17.6797 29.3706
1 15.6434 20.2651 11.507
1 15.589 9.45566 3.18668
1 5.31772 19.7369 14.5196
1 6.65853 13.327 24.4341
1 8.1746 25.25 18.1454
1 15.7699 30.3075 25.7716
1 4.05535 24.6797 24.0482
1 22.3512 29.0828 10.3559
1 9.83799 28.8838 10.5334
1 28.6355 27.577 5.343
1 2.08002 3.79883 12.7612
1 27.6036 20.2247 13.109
1 22.9593 0.872056 14.9329
1 5.14785 28.8204 4.22051
1 24.3004 18.6493 21.8716
1 12.5248 3.36092 24.9485
1 8.24523 20.6443 23.4385
1 24.9999 0.587556 12.1855
1 28.2776 28.8301 15.2965
1 19.1367 11.4109 12.4738
1 16.4224 12.3738 15.9307
1 1.22963 1.24047 10.0202
1 24.7715 21.0492 3.44317
1 20.1395 8.55252 13.3163
1 5.25775 17.8748 19.1541
1 28.7404 20.29 26.1281
1 25.3517 22.7017 28.6407
1 6.96693 27.474 21.2272
1 10.2355 2.04803 22.1547
1 30.2218 30.3411 6.25376
1 28.1197 15.9033 18.5309
1 22.6159 12.1333 22.8945
1 21.3071 14.7782 22.9171
1 27.0762 21.8879 8.86417
1 24.7113 23.8604 18.949
1 17.0314 28.2623 1.14981
1 27.4598 14.624 21.8633
1 14.1673 9.67102 24.3868
1 30.5825 17.7901 1.92513
1 7.31221 22.174 29.7384
1 4.03718 12.9825 30.2038
1 11.8991 26.8487 19.6656
1 11.9904 10.7854 29.6982
1 4.78837 12.8816 0.987316
1 29.391 3.788 9.00513
1 19.854 21.2173 25.4822
1 1.00123 1.2934 29.9072
1 22.4069 23.9303 18.0359
1 8.78865 21.491 16.5134
1 3.26233 2.73514 14.2517
1 21.4775 23.9572 6.00051
1 18.4597 9.59876 3.88802
1 1.16146 13.3679 7.29783
1 17.3499 14.8338 24.2387
1 28.6963 10.1621 2.79966
1 4.27258 25.9563 9.5855
1 17.2462 28.1971 3.61486
1 11.5832 21.6414 14.8763
1 30.0147 18.556 26.9057
1 11.8021 24.2509 -0.239836
1 10.1968 16.9364 8.61191
1 22.6897 13.472 28.3864
1 8.20484 25.1071 15.0481
1 18.0541 21.602 28.6481
1 27.9692 18.3903 10.1421
1 19.8022 25.9143 20.4224
1 30.0594 27.7802 5.62512
1 12.5741 13.55 1.22398
1 29.5077 24.7699 22.3825
1 14.7747 2.05524 16.6982
1 22.721 25.9659 2.12392
1 4.71947 29.0768 27.1003
1 8.77395 4.181 21.485
1 4.25973 25.9537 27.9592
1 5.89234 20.5879 5.78434
1 15.2792 24.7853 17.9181
1 5.99339 2.57766 4.04989
1 3.99984 17.6545 10.3935
1 14.155 19.8111 15.4817
1 9.35806 14.554 6.46872
1 29.393 4.45145 5.43479
1 21.7157 2.99537 6.39829
1 23.8358 18.5997 12.1804
1 25.3679 2.01136 16.8066
1 18.1705 2.64263 5.56684
1 27.1968 24.6932 4.48017
1 21.7565 23.508 8.94995
1 23.3328 13.5439 15.3109
1 14.2891 30.3072 18.5042
1 27.0678 27.828 8.53524
1 14.0362 6.1944 29.6033
1 4.42797 11.273 8.96989
1 17.9927 7.14209 4.45307
1 8.39726 25.3658 3.00222
1 5.72072 7.153 11.4952
1 22.7926 9.86405 26.9291
1 12.9496 7.39266 26.7145
1 4.67283 22.4928 8.01752
1 9.21012 8.43154 4.34289
1 13.933 22.7384 3.72956
1 13.322 12.815 19.081
1 8.37308 1.86415 15.9086
1 19.966 7.49834 28.9639
1 4.07994 29.8331 21.7134
1 2.18765 14.3118 7.52245
1 17.7576 18.3226 10.8344
1 22.2454 8.77455 20.1372
1 9.55487 4.90503 8.19589
1 3.80685 23.5377 5.1635
1 20.2381 28.0404 0.838063
1 1.9581 3.01576 26.7006
1 20.9384 19.2983 13.8032
1 23.1776 10.4951 10.0534
1 3.82851 3.69299 10.8518
1 11.8968 30.3854 19.4713
1 8.52605 3.12311 8.90694
1 21.7982 8.91738 15.7314
1 28.2743 8.44663 24.3388
1 9.40623 29.2362 8.09801
1 14.8165 28.5052 21.9362
1 28.9247 3.03859 5.14548
1 20.3356 17.6629 9.60115
1 18.5905 26.8809 2.26008
1 22.9224 4.7076 13.4996
1 10.554 6.86981 3.4578
1 21.9952 14.7496 17.1631
1 11.3149 21.0682 19.695
1 18.168 27.6148 20.1838
1 1.04755 12.645 4.72286
1 4.52401 2.93841 22.9518
1 2.16116 10.231 28.0066
1 1.75926 4.23459 20.0987
1 13.1434 14.5981 26.5477
1 2.14473 7.18765 18.8149
1 5.20337 20.6627 16.9301
1 21.3652 9.98602 30.293
1 14.3834 1.40044 4.59033
1 6.27899 2.81402 9.77023
1 2.21918 11.2204 12.1092
1 16.3966 15.6229 20.9902
1 30.0834 16.1681 23.2871
1 2.82091 0.703008 6.93188
1 17.5039 20.672 19.5751
1 14.9216 6.81174 6.03876
1 4.68621 26.1029 16.5294
1 15.8711 3.5563 19.221
1 11.7968 6.47022 1.49271
1 27.4573 9.77202 8.56413
1 6.21419 23.0612 10.9223
1 22.5543 25.6576 26.386
1 2.77001 23.158 6.01894
1 29.4854 2.97969 2.20547
1 7.68054 14.9754 11.9526
1 23.6714 7.30441 15.4966
1 8.43246 3.87082 1.52567
1 3.95361 11.9129 24.3526
1 21.3742 7.43332 2.0413
1 15.3472 5.55051 18.3691
1 16.668 1.29205 19.0029
1 7.38333 24.7189 26.3394
1 0.0580564 28.91 16.8161
1 8.79606 8.95982 28.7686
1 21.7323 9.02892 12.5611
1 0.459876 23.8537 1.44881
1 21.1161 16.096 2.7974
1 14.5994 12.5028 18.4112
1 16.6091 29.0004 25.3667
1 10.8519 10.4824 17.0774
1 12.2045 22.4226 12.8004
1 6.0053 12.1568 28.6343
1 29.0574 28.5264 2.93197
1 14.2953 7.34667 27.4565
1 26.0113 28.8738 17.7655
1 28.4239 24.4364 0.874035
1 15.4179 9.9201 23.3991
1 3.47644 30.09 11.3455
1 18.3364 19.1321 9.78747
1 22.2939 6.37881 0.583846
1 30.1426 18.4193 23.87
1 14.5408 23.5691 10.0983
1 -0.0414028 5.28913 16.7696
1 10.7012 28.7592 7.76257
1 22.3518 25.9639 16.6884
1 2.60936 0.703484 26.9009
1 25.249 2.33392 28.6487
1 13.5372 2.26734 19.1694
1 22.4543 16.8535 1.32746
1 4.1132 23.7907 26.5896
1 27.8928 27.7448 16.0852
1 17.7175 23.7331 27.4866
1 16.0108 27.928 25.8728
1 25.3683 23.6092 22.1886
1 12.668 25.495 19.8291
1 18.095 16.4099 3.79212
1 1.92581 13.891 15.6957
1 14.9464 20.7801 14.7592
1 26.5451 8.18047 22.0766
1 22.9861 24.1525 6.041
1 26.5553 12.11 6.45156
1 7.87337 17.5479 21.1438
1 23.7019 12.8937 11.4375
1 14.1284 7.79724 17.0225
1 3.08002 23.4142 25.7487
1 10.5194 26.731 28.4283
1 6.34421 21.1239 16.7345
1 26.1441 11.597 16.7851
1 26.5948 13.2593 10.8212
1 4.53775 20.0989 15.6746
1 10.6555 28.2859 13.1978
1 2.43371 3.53052 16.5972
1 22.6278 29.0214 29.1949
1 2.63993 26.941 11.5925
1 6.95258 5.57612 27.6128
1 25.5571 3.55054 19.6128
1 23.2125 6.61969 21.8838
1 6.64526 23.8961 8.4543
1 1.44473 22.8819 11.7313
1 10.7745 27.1722 5.49806
1 15.7336 15.3218 6.38148
1 4.68808 2.49007 14.9744
1 18.8644 3.88934 18.8722
1 18.8421 4.32068 16.1303
1 9.89812 26.0063 0.750912
1 19.5564 17.2974 21.7178
1 5.68019 8.28582 6.44584
1 9.53448 15.317 4.08483
1 25.286 18.5359 5.39893
1 5.85402 14.7907 2.75072
1 8.07832 24.1919 18.9142
1 21.3165 7.82132 10.9928
1 10.2421 16.8959 23.9341
1 19.8926 16.9294 23.0035
1 23.0565 9.60867 25.6235
1 1.88787 29.8985 15.5974
1 26.868 20.8055 12.2349
1 6.48699 11.5091 25.9394
1 19.4614 6.30692 17.6015
1 8.72648 29.3515 29.6239
1 21.9342 16.6473 19.7622
1 23.5294 28.5856 1.74929
1 15.1325 29.8248 6.42629
1 17.2548 10.0727 21.076
1 28.9357 5.30889 10.6595
1 11.022 11.9197 29.8152
1 2.30854 22.2562 27.4424
1 19.8383 4.85823 1.1406
1 17.6318 11.0952 28.4367
1 24.8168 18.8704 16.0269
1 2.73394 18.5235 28.0701
1 3.15246 14.0027 16.5075
1 14.2181 5.97673 15.409
1 7.99988 1.55494 23.3365
1 13.3386 3.76576 6.18408
1 27.2699 29.475 11.5972
1 3.32584 9.82402 21.8491
1 2.28074 20.3106 19.4399
1 10.5146 2.70389 0.78307
1 3.65682 27.2227 16.1884
1 23.5533 10.4501 13.0433
1 15.1919 3.9471 14.0999
1 5.79279 14.6043 17.5875
1 24.9261 18.8274 8.45385
1 15.8738 10.9908 16.645
1 24.6058 4.81212 1.31861
1 9.27907 2.39521 26.527
1 16.7215 3.57949 24.5156
1 11.3597 2.8914 28.5282
1 7.32515 11.049 8.58262
1 22.0623 24.0713 28.0442
1 11.7672 14.6992 27.1098
1 5.92565 10.6306 27.0041
1 28.6651 23.1123 23.5664
1 12.2107 24.8456 5.68689
1 28.1695 27.4633 7.74832
1 7.78503 16.5782 3.02852
1 24.828 22.5181 10.8693
1 6.04119 3.34884 0.844514
1 1.53694 18.1428 12.9668
1 4.68293 11.3793 5.69525
1 8.18128 4.92292 27.2593
1 26.6104 20.9747 1.48344
1 9.52024 3.98777 17.7075
1 18.9506 14.1808 27.8464
1 14.4573 26.4698 12.6718
1 5.85594 29.01 2.86562
1 23.2734 30.2755 6.34027
1 16.9498 13.1572 22.2702
1 2.04009 11.8624 0.18931
1 20.1542 27.7957 13.8357
1 3.565 18.3812 13.033
1 24.4373 11.3058 1.96639
1 11.2402 24.3123 25.3605
1 10.4545 6.54917 11.8203
1 26.0271 13.7507 0.483165
1 26.0258 10.6966 15.8094
1 16.2437 0.963958 2.13673
1 29.7423 7.93069 15.7737
1 0.899557 8.35831 9.43985
1 23.6106 21.4315 29.6584
1 15.0927 27.1025 18.9159
1 28.0386 8.38779 12.2132
1 14.8433 7.5039 21.2154
1 26.8223 23.9414 27.0142
1 29.1095 14.8079 27.4617
1 22.378 17.8715 26.8638
1 2.67506 7.22119 26.8896
1 9.83767 6.64509 10.7181
1 12.6579 25.6757 28.5142
1 4.60728 1.74125 29.9241
1 9.39853 2.37718 5.68228
1 26.5966 2.99555 5.36591
1 7.72723 26.2285 20.2327
1 6.44175 25.4651 6.88223
1 23.5265 5.95504 11.5402
1 26.0799 25.3328 17.4095
1 19.1536 17.1166 16.903
1 25.1984 6.68416 3.02927
1 2.53559 29.3389 3.34284
1 4.22728 23.3946 21.6476
1 2.00148 27.3465 8.55322
1 23.4752 3.66499 11.1213
1 18.3905 4.12121 11.6697
1 24.1162 24.3251 16.1019
1 19.0711 5.50919 21.0333
1 1.88018 22.008 16.2735
1 8.16012 22.2094 22.0035
1 11.2288 2.85369 24.3672
1 27.5114 11.2532 14.1833
1 10.8626 18.1235 23.2468
1 16.1884 1.26574 5.27709
1 6.7785 4.4885 13.7294
1 11.5848 5.01777 26.6876
1 26.5452 17.4576 24.4425
1 19.2631 11.4564 17.7145
1 13.275 17.7107 28.142
1 16.6102 5.57685 9.47701
1 17.9668 29.6363 5.4337
1 2.08685 26.6997 12.8259
1 24.6546 2.28256 19.2571
1 28.2497 4.6583 27.9406
1 15.4408 22.4462 8.94225
1 6.65759 6.10707 9.28256
1 30.1403 29.3567 3.40594
1 9.79465 1.07426 10.2878
1 1.47692 30.0275 23.7603
1 14.025 19.4523 22.4091
1 18.3099 28.5669 28.7447
1 3.59918 4.49725 16.7038
1 5.88346 1.0041 23.269
1 18.8143 29.8553 1.99128
1 29.8752 3.87007 12.3823
1 3.6472 24.8598 21.2733
1 16.3921 22.8627 15.1849
1 21.8874 14.7939 21.5953
1 1.79214 25.5907 28.4204
1 16.0528 22.2128 18.5237
1 18.9966 6.28732 13.0486
1 8.4583 0.651873 13.744
1 12.5173 4.08413 3.92804
1 26.1997 4.46065 13.541
1 23.5132 30.2022 29.2911
1 16.4959 10.154 6.45292
1 21.8964 12.2965 6.74056
1 5.81568 8.166 15.911
1 3.78966 8.96375 19.7779
1 2.60952 2.79464 8.70278
1 3.49917 7.97316 7.13179
1 8.5944 4.80107 15.4551
1 14.6644 4.95221 29.2614
1 28.4768 1.60166 15.0003
1 24.0803 12.474 3.73403
1 15.2622 2.288 26.7075
1 13.6027 14.8318 22.8537
1 1.79878 21.4185 11.4473
1 6.7915 15.3374 24.7114
1 15.0789 21.6541 23.3341
1 29.3669 11.2197 10.2932
1 15.2222 14.4519 14.7335
1 10.8322 21.9936 12.4368
1 5.94411 12.1786 3.14336
1 14.0032 5.96999 19.2065
1 21.6919 30.4949 15.2786
1 16.9182 9.96376 1.16041
1 18.7555 10.4224 27.3681
1 24.4681 2.93062 16.7082
1 1.53495 14.8416 25.7082
1 3.18715 18.8375 8.15765
1 28.9398 11.468 25.1189
1 12.3356 0.446493 13.2951
1 4.84032 5.20719 12.3838
1 14.5615 27.6948 7.5785
1 9.50209 29.06 22.0925
1 9.67805 12.1132 15.8523
1 4.9228 3.78765 5.862
1 19.8391 24.4565 14.376
1 4.48674 30.0053 4.09408
1 4.5423 9.52249 25.1021
1 22.6555 22.4087 29.1729
1 5.2494 9.03602 8.41733
1 9.02521 19.992 2.01889
1 14.4645 27.9735 9.07357
1 8.62905 24.9733 8.22484
1 2.02552 9.05255 5.15078
1 11.6238 10.9078 6.28992
1 4.44991 11.8809 10.3737
1 10.8148 6.7898 21.6685
1 5.08277 17.3455 26.9514
1 24.7805 20.4858 23.4412
1 19.0034 8.7415 7.39739
1 -0.0738326 13.4298 10.6375
1 22.374 3.8217 20.7788
1 7.73522 17.0603 8.98489
1 27.1039 28.137 28.3825
1 23.2407 16.9702 27.822
1 8.90594 25.4091 28.4955
1 20.0423 4.12062 19.5067
1 20.7774 19.5413 27.718
1 26.7898 3.97096 18.645
1 8.87082 8.81655 14.4024
1 9.90946 6.98573 9.3474
1 15.8903 3.46076 3.87233
1 14.1348 16.0848 13.2819
1 15.2356 15.461 1.89373
1 0.371308 24.6799 14.5411
1 20.695 2.65024 5.72829
1 19.2128 5.11373 8.17425
1 9.11725 24.8866 11.0816
1 26.9528 29.6675 25.4392
1 2.62054 16.1916 1.76468
1 6.45367 2.61104 12.3006
1 26.5189 7.15751 13.2289
1 5.81666 23.4699 3.77045
1 15.4535 10.473 1.02885
1 23.0741 0.983315 28.4415
1 10.8217 15.6572 23.8582
1 2.42785 11.0669 26.1382
1 5.92356 28.2851 11.4955
1 20.0739 3.27528 23.0677
1 4.11888 0.698819 19.3947
1 0.289038 27.9529 22.5664
1 15.6115 2.34093 9.37919
1 10.2849 14.9527 7.30639
1 29.6736 19.821 17.429
1 29.7478 16.5709 13.9906
1 27.6983 27.4196 6.34573
1 12.941 13.278 15.4777
1 10.6024 26.8267 23.3252
1 15.2547 2.63781 22.9501
1 18.5228 20.8245 15.4616
1 3.87684 29.6902 14.2101
1 5.62649 4.85215 5.09678
1 16.177 30.5215 30.432
1 16.0839 11.1072 23.1481
1 29.174 21.0046 25.2256
1 17.2668 8.85254 21.8992
1 7.98328 15.4954 2.01973
1 18.2498 11.5716 4.82457
1 23.3105 12.2694 21.557
1 23.7308 20.6224 9.82891
1 25.3139 20.7401 2.14865
1 28.7039 0.1639 4.5036
1 28.8748 21.6976 1.19489
1 4.77141 1.97016 3.69065
1 0.714058 8.99627 20.0818
1 25.3402 11.9772 5.78058
1 3.13879 13.3632 12.9435
1 -0.0694806 21.7114 28.8392
1 9.88543 17.307 13.4844
1 8.13707 10.8682 19.4421
1 5.93614 28.0669 20.5487
1 1.74437 3.74381 8.28048
1 9.27027 20.9258 5.59567
1 24.2572 20.2617 1.459
1 5.49961 19.3959 28.05
1 9.19767 3.35742 15.2894
1 14.0642 11.9015 22.0243
1 25.9969 13.3884 9.21696
1 10.9176 22.4189 6.94462
1 14.4659 27.7446 24.5616
1 27.7245 19.0791 5.61805
1 7.65715 4.36487 2.69712
1 27.5158 2.53293 9.78946
1 8.32909 28.7823 6.99376
1 1.00214 2.22726 11.0855
1 5.09916 9.62022 0.696174
1 5.30644 6.27753 14.6217
1 7.42394 7.40679 25.5047
1 20.2035 0.284973 4.4967
1 5.45582 15.5449 11.2915
1 13.7005 26.305 4.02616
1 0.602919 6.45771 17.2064
1 0.624118 9.78106 22.5489
1 5.961 6.25331 27.1119
1 10.1052 23.8897 21.9865
1 11.8024 7.28424 28.6391
1 17.6373 24.3256 28.9165
1 13.9779 29.3516 12.2108
1 3.71041 6.16276 14.1993
1 21.2563 0.0970089 21.7876
1 15.1268 20.8998 9.26251
1 19.6947 3.37615 12.3355
1 18.3808 30.1692 28.7566
1 22.3526 18.1733 25.5593
1 28.9211 -0.0405102 5.83539
1 1.44901 29.3311 16.8463
1 29.2817 8.28203 12.7432
1 28.0766 14.1533 29.3858
1 19.2666 12.2195 5.91956
1 0.642373 8.78367 17.8106
1 7.65274 9.99268 18.4852
1 10.3436 23.0874 18.557
1 11.9389 10.7914 25.7648
1 22.4586 25.2902 20.5926
1 2.74054 29.1326 23.5354
1 20.7921 25.2735 4.25017
1 13.9838 29.0102 24.247
1 5.63575 9.02258 1.94407
1 0.573803 13.5943 25.6753
1 17.2401 5.16221 14.1843
1 4.76194 15.6413 0.627102
1 1.38958 22.1756 4.15634
1 20.444 19.1892 1.37095
1 19.1141 27.1815 5.21123
1 25.6729 21.5401 4.26004
1 17.6156 5.88633 6.48049
1 22.3071 6.25765 19.8321
1 1.65474 1.82949 0.852196
1 19.4507 0.329244 19.5456
1 6.8361 26.6069 22.4339
1 4.41875 6.59209 11.855
1 20.1193 3.99393 30.4864
1 17.8736 10.3217 25.7076
1 13.8747 16 26.0453
1 28.4678 5.53673 12.9635
1 18.3027 12.2317 29.2117
1 2.12899 13.1301 25.6914
1 8.2556 30.0798 19.8504
1 17.325 2.12379 2.04186
1 22.0312 22.1344 22.4424
1 1.56388 7.05072 14.6496
1 15.3419 7.88141 24.6884
1 13.4807 15.2434 12.3035
1 0.558972 16.5056 24.4706
1 2.34621 21.6038 21.2299
1 2.4959 21.8917 7.75478
1 18.2113 2.62439 9.70621
1 28.4665 21.5448 23.9553
1 15.7835 27.646 29.239
1 4.5471 27.8083 13.7144
1 2.65509 26.8781 15.1978
1 24.2888 17.9626 0.913462
1 25.8389 29.9823 0.573955
1 6.01801 12.9805 23.2353
1 22.2778 5.7545 6.50801
1 28.8746 21.1276 20.7602
1 16.9189 14.4062 12.3129
1 23.3868 14.8359 28.1715
1 7.21984 30.4274 8.9761
1 1.25556 8.17803 6.85518
1 0.504206 15.9406 25.8772
1 15.6449 27.5134 20.2288
1 19.9127 29.3695 1.21018
1 29.0345 23.2959 16.4079
1 10.3309 5.96638 7.08152
1 1.3539 29.1834 11.8
1 25.5505 15.0021 7.2938
1 5.61502 23.3067 21.3478
1 24.626 17.5614 3.29244
1 28.1623 22.5196 8.42409
1 12.6568 11.3852 13.804
1 12.7795 9.6718 11.8479
1 26.2742 30.3115 28.1748
1 25.3196 2.89433 5.01943
1 8.33173 24.3612 10.0378
1 7.41944 10.1687 0.866272
1 23.6125 25.1377 30.1497
1 25.6517 4.23241 12.2514
1 21.8813 11.7582 8.06355
1 7.6222 11.2583 11.9427
1 23.195 6.8835 17.7078
1 16.6936 30.1815 22.8079
1 8.2024 4.50186 0.27111
1 20.4774 23.5563 21.1501
1 7.83557 8.68265 24.9979
1 7.37553 27.081 1.792
1 1.49251 24.3265 15.3903
1 2.19525 2.73378 15.3377
1 14.6318 19.1185 5.051
1 1.21505 18.9466 15.8147
1 11.3161 29.822 18.1561
1 22.7863 9.97565 2.00891
1 10.3941 6.00252 2.04787
1 15.9546 27.3052 16.9628
1 1.11035 3.33722 21.2931
1 7.84731 21.4302 18.6366
1 20.4806 2.28056 14.4106
1 20.4463 22.8894 19.8855
1 20.8771 8.04676 16.6957
1 6.53502 13.9478 7.52847
1 0.558771 23.2101 17.5196
1 5.01655 7.32189 7.33537
1 23.6856 10.063 14.6781
1 17.7985 29.4762 7.81199
1 20.5099 25.2742 12.9012
1 14.4294 20.1353 8.40634
1 19.8164 5.69714 23.4203
1 21.0701 13.4157 27.5982
1 15.2268 20.167 19.0228
1 13.8817 13.1107 4.50154
1 3.62257 7.29776 16.4471
1 15.6379 17.9236 9.03859
1 14.2904 20.0776 17.8109
1 17.7469 12.2208 21.6774
1 21.8065 5.92805 14.7255
1 0.498649 10.4661 3.21725
1 12.3008 26.8581 11.7463
1 13.1061 18.5569 22.0476
1 15.216 16.3927 8.81576
1 20.0076 11.3429 13.5719
1 25.8589 29.0275 28.6773
1 19.9383 13.8665 18.2736
1 16.524 18.7233 8.00742
1 1.20284 23.8969 29.6614
1 12.7147 14.1403 25.0517
1 8.01799 28.4557 3.54872
1 1.53369 7.82192 28.9058
1 28.3305 12.3415 22.9771
1 13.6237 11.0085 5.17565
1 4.07039 16.0942 8.49084
1 0.417953 18.393 19.3117
1 7.26799 2.88678 22.9134
1 23.3904 26.2478 10.7966
1 27.8621 19.1484 22.7038
1 24.4727 9.1366 19.4054
1 14.2521 4.30792 10.5395
1 14.5388 15.2059 0.628762
1 28.7271 4.72284 25.0029
1 18.2921 23.8284 21.969
1 30.3967 6.34613 26.144
1 30.4833 10.1375 19.5445
1 21.3164 17.4814 22.9335
1 8.89606 10.7858 25.8768
1 6.78193 20.3473 3.26049
1 2.3216 9.23512 2.23913
1 20.6361 24.1817 27.7554
1 15.2415 24.4701 5.70275
1 11.4342 14.7202 18.1057
1 14.8486 8.72489 21.8096
1 19.1159 12.568 28.1228
1 22.0628 4.67464 24.1169
1 3.27561 12.1766 25.933
1 13.9832 6.72169 8.42717
1 19.1894 21.8156 4.17527
1 3.29019 19.5888 25.6923
1 8.17917 20.7827 15.4617
1 16.218 21.1692 19.1959
1 6.09512 10.6415 15.2477
1 24.3215 26.8235 9.78182
1 28.9074 13.4081 14.3939
1 23.1217 27.886 29.5308
1 4.79693 4.7124 16.0438
1 24.5311 3.24325 11.992
1 27.7256 28.7798 17.6425
1 27.3706 10.4299 15.3715
1 27.7025 8.60173 30.0343
1 3.78861 0.969892 17.8211
1 22.5206 19.3281 30.5246
1 25.3281 3.39434 24.6091
1 6.10874 24.8804 21.5436
1 12.5291 6.33743 29.3767
1 3.02424 27.2767 19.687
1 9.68789 23.362 16.3208
1 22.1895 23.4231 14.6514
1 14.2961 21.4274 13.7092
1 2.04852 8.38945 26.5905
1 1.50726 30.2014 25.304
1 8.85554 25.4078 21.1193
1 28.9794 5.77395 20.6082
1 27.1731 14.7519 25.5777
1 11.2863 5.29777 24.0768
1 15.2404 12.1846 20.0756
1 22.958 3.12909 5.35702
1 3.1866 27.9817 18.384
1 29.6108 21.2757 11.8187
1 25.0307 7.22817 14.6485
1 13.5978 29.7994 25.5877
1 15.9061 0.828823 16.4473
1 3.98095 2.9011 9.44198
1 22.9449 14.9871 7.97015
1 0.401331 11.6927 10.0507
1 3.17579 7.15492 8.35776
1 12.4498 3.59343 7.55636
1 6.79919 16.154 11.4337
1 28.0712 10.3739 16.9127
1 18.2019 15.1949 21.2257
1 16.3264 19.8095 6.83707
1 13.0498 23.8208 17.7872
1 28.1622 9.78541 20.7235
1 23.4194 19.898 29.4023
1 23.7197 1.08958 21.388
1 28.5442 8.25924 20.7648
1 7.94978 27.7643 13.1221
1 1.54602 0.973673 2.23894
1 2.55917 9.03376 0.941007
1 10.8915 0.543189 13.3117
1 11.9563 20.9165 10.1096
1 22.3697 22.7711 11.2104
1 17.2252 1.72396 7.55772
1 17.6257 14.7962 8.87964
1 9.76984 25.2448 14.738
1 0.369187 23.836 24.5712
1 29.1489 14.4502 1.95234
1 13.9314 16.7249 3.56794
1 11.7915 27.3735 1.41405
1 13.8518 20.952 20.614
1 23.0521 12.8082 4.63714
1 12.7179 11.371 19.8459
1 26.605 15.4768 6.37244
1 23.125 13.9414 25.9372
1 10.313 22.1626 1.82917
1 11.0877 27.8612 24.3999
1 14.6869 4.65695 27.9381
1 7.75534 4.67193 16.5292
1 4.66898 6.47447 2.82168
1 3.76978 15.8872 13.6751
1 3.93904 26.7325 26.8697
1 8.18462 16.6636 29.4333
1 6.97401 5.87791 22.0861
1 1.53714 25.9016 17.5559
1 15.0354 23.8309 28.2225
1 14.355 22.0158 30.1036
1 16.2518 29.7739 2.5234
1 8.71745 7.47762 14.1066
1 10.0068 3.64165 1.83926
1 11.5674 5.10973 17.3595
1 25.7621 27.0638 21.9697
1 26.6024 17.1282 25.936
1 0.854093 13.4211 22.8213
1 12.3822 14.9531 18.9776
1 7.62555 22.6378 1.68642
1 7.02409 14.2705 28.7261
1 28.9 22.0106 10.9691
1 15.9127 1.54351 8.21331
1 18.6378 14.1123 15.6736
1 2.30005 13.4288 18.1556
1 6.56753 24.6471 24.0932
1 17.2691 2.04391 11.7004
1 10.4624 21.1756 13.7258
1 10.2967 26.5194 15.2167
1 0.362637 21.0892 8.74036
1 25.3955 27.1329 5.56139
1 29.1752 2.84971 20.0566
1 1.69175 19.5045 4.60193
1 20.1225 29.7245 10.7039
1 7.53069 29.4972 6.18396
1 7.61991 18.4634 18.2399
1 11.1589 16.8691 11.0923
1 28.9127 7.38981 23.3604
1 10.9884 7.83589 14.5371
1 15.3518 23.9853 11.1608
1 22.7989 8.8156 14.6946
1 25.4611 26.6727 16.7502
1 4.13682 2.10234 19.8651
1 13.2613 5.57686 8.41342
1 4.33439 8.0462 24.8018
1 20.9613 20.8421 10.9784
1 4.7744 21.5638 0.608806
1 1.10118 21.6672 23.2095
1 27.7627 9.90399 1.84072
1 6.49636 8.26377 20.8785
1 5.10901 16.0184 26.2656
1 7.55672 20.8423 7.33921
1 1.94146 18.908 19.369
1 16.1988 18.7428 3.57257
1 6.7821 27.1451 29.5227
1 12.3139 9.92737 21.6814
1 28.3234 18.2814 20.1516
1 22.3467 17.6352 20.7147
1 2.72476 26.1078 26.0904
1 30.2849 15.9518 3.79948
1 9.25057 21.7469 27.475
1 0.884011 13.309 3.46186