4096
Atoms. Timestep: 540
1 8.41601 10.2948 19.2501
1 6.83029 4.21873 1.01002
1 17.816 8.53522 2.02789
1 20.3942 11.4601 21.7005
1 15.6591 15.0594 8.27913
1 16.4929 29.2035 16.8816
1 22.8876 17.9628 12.3784
1 19.0296 0.653141 25.6333
1 4.14367 3.4797 8.73829
1 22.6906 8.12788 11.8848
1 12.1831 22.4577 4.93518
1 27.8321 2.45082 1.33007
1 22.8326 24.1691 4.4696
1 28.6962 13.8233 1.15865
1 26.5188 10.709 16.7072
1 10.2832 13.0916 2.4036
1 10.4953 1.56351 27.1106
1 12.1548 2.96338 9.5737
1 11.0446 15.6848 17.8858
1 18.6789 25.9046 7.93802
1 15.2847 14.4526 22.4657
1 7.46384 2.60364 26.6408
1 11.816 18.2462 11.1043
1 26.2412 18.9394 9.07823
1 20.709 29.1727 5.17702
1 3.433 4.20503 19.1132
1 23.6636 15.7642 22.6871
1 2.1155 20.1519 29.9567
1 16.4318 9.50989 2.0562
1 14.8334 13.4018 9.03711
1 23.05 13.3857 15.5283
1 8.06591 25.2058 28.9481
1 8.69686 4.71458 4.27753
1 16.2653 3.07813 26.1068
1 28.2816 24.9412 15.5402
1 17.7578 7.04748 18.0851
1 0.68969 15.8472 27.1406
1 23.6375 24.6513 0.60143
1 19.5484 28.7109 27.8933
1 8.35942 11.4666 14.1166
1 10.4807 5.87302 10.3335
1 6.34227 26.6529 8.29816
1 13.2678 11.4767 15.683
1 9.21982 16.5814 24.3752
1 3.45501 0.394392 2.56819
1 24.64 26.8232 25.3715
1 16.2813 12.8718 23.9142
1 28.064 4.9649 6.9557
1 17.2311 7.32548 5.23086
1 12.9993 5.86254 6.43988
1 16.1437 14.3941 26.1881
1 22.7669 7.04328 26.5965
1 14.7983 26.7332 28.6313
1 28.1425 3.97066 16.806
1 26.1062 19.6389 3.40866
1 12.8194 29.4372 25.1468
1 12.6527 17.5192 5.1182
1 12.2331 23.7896 6.01625
1 3.46396 21.4956 28.2341
1 1.34703 7.2026 21.4791
1 28.6176 2.32606 2.61974
1 0.797774 4.87337 7.09228
1 24.9049 14.0078 14.1343
1 3.47945 10.134 8.81261
1 12.685 2.74231 7.48707
1 20.8816 19.653 14.5455
1 26.6837 24.9193 28.6572
1 16.6325 28.5799 9.11861
1 0.847258 11.1674 21.2368
1 8.55376 22.6345 27.4482
1 4.89687 23.9032 13.5258
1 6.74313 5.90991 6.53319
1 9.9594 14.9605 29.7233
1 18.7126 18.8865 12.159
1 5.37433 28.652 2.66308
1 13.7741 15.512 6.49041
1 14.408 19.8575 27.9707
1 28.395 26.7651 7.47592
1 0.33942 23.9195 19.5563
1 13.5919 9.24424 2.60161
1 16.3877 17.637 4.29313
1 4.71725 0.287606 16.7449
1 12.6598 20.3691 7.85974
1 18.8492 25.1038 10.2506
1 8.47993 27.1042 22.243
1 9.90215 0.946544 26.0132
1 9.86121 26.3196 28.2332
1 19.6997 13.9755 5.80415
1 11.878 26.4893 9.46448
1 5.93785 13.951 0.616788
1 2.56352 5.75762 9.0211
1 9.53817 20.2315 3.1432
1 17.638 14.0652 21.8131
1 3.73311 6.20595 14.4469
1 13.8848 17.6182 27.8942
1 26.2306 11.4716 10.4596
1 6.84363 11.7723 29.6746
1 19.3446 16.7666 10.8293
1 13.7725 11.2038 19.4695
1 9.92041 8.75193 15.1352
1 3.64414 0.911326 21.1814
1 10.1506 27.5521 0.556369
1 16.2694 11.5031 6.4892
1 25.8417 19.989 20.4179
1 8.55816 27.2613 6.78853
1 30.2201 23.7884 22.1552
1 12.7783 27.5058 20.2718
1 13.3938 2.81691 19.2479
1 15.5097 22.9271 5.61863
1 12.8143 17.7829 2.70526
1 23.2194 12.9204 19.4281
1 20.2924 29.3256 21.4152
1 11.53 5.55833 19.9174
1 5.97062 7.49981 14.5008
1 11.4823 11.8748 8.70133
1 12.1168 14.136 19.6289
1 13.6547 22.397 25.1845
1 14.3307 15.5402 8.14949
1 1.45196 3.23488 18.4979
1 22.5208 29.6432 1.25249
1 22.1366 2.20819 16.9448
1 18.8186 16.16 6.2369
1 30.0601 20.6555 28.881
1 2.60376 6.5231 25.8636
1 11.3701 2.09415 29.2629
1 1.52339 21.3675 15.6993
1 10.0448 21.0065 13.2778
1 5.0107 18.2521 10.7535
1 6.27624 11.1465 23.1164
1 5.30461 18.8917 26.1319
1 13.9205 10.6309 2.9476
1 24.135 22.5322 9.99204
1 0.373147 14.8062 6.11245
1 16.2792 9.89345 22.9863
1 2.19273 24.4504 8.16826
1 8.01034 1.63641 5.51128
1 28.4647 10.1772 26.9676
1 2.52534 22.7964 24.188
1 14.6255 25.7422 8.54307
1 25.1835 23.6219 23.8803
1 23.5257 8.32237 3.47521
1 20.4973 22.0065 19.945
1 8.94647 10.9377 2.80516
1 25.2072 0.513429 17.0693
1 19.7568 26.1771 15.755
1 11.5903 24.5797 8.18274
1 6.96988 13.0752 0.458971
1 22.2427 14.7078 2.50026
1 8.50811 1.20259 2.42163
1 19.6748 25.1472 6.96925
1 29.0218 19.6103 1.95849
1 5.86839 13.4289 4.14549
1 15.1546 4.21347 16.6095
1 16.6843 12.5869 18.5476
1 6.50525 22.6205 20.7812
1 12.0268 15.5415 8.77947
1 15.5165 24.1919 20.5808
1 16.6379 16.2621 11.2371
1 18.0539 21.9022 13.1755
1 11.3712 2.4551 26.8056
1 28.3527 17.2233 11.2298
1 16.7112 6.69672 8.31026
1 10.4848 12.5125 28.3309
1 9.18233 11.4943 28.3613
1 28.6922 7.23926 22.76
1 3.72562 11.4784 8.55704
1 6.6422 6.34143 13.8381
1 9.2289 6.8107 12.1229
1 4.70719 7.39746 2.99156
1 21.9343 2.79523 12.8914
1 5.0895 0.757256 5.65238
1 9.21555 16.6591 19.5096
1 19.0939 14.0401 17.0321
1 25.556 6.4786 17.7077
1 16.9003 1.97402 18.7137
1 13.7865 18.6577 15.9858
1 7.64767 24.051 23.4213
1 11.7207 9.03929 28.5348
1 0.858949 20.3164 7.04527
1 3.95176 12.1862 0.73155
1 5.49661 17.0511 17.151
1 24.8879 10.6298 17.1395
1 1.49844 10.8486 0.582497
1 7.63333 16.1374 5.36858
1 6.42997 23.6835 15.6898
1 9.25133 23.4704 21.7463
1 0.778667 19.8822 20.783
1 11.2033 13.4704 12.5723
1 25.2626 4.54387 28.2291
1 20.1119 21.2655 27.5186
1 0.600457 17.9121 7.83777
1 9.80487 21.073 28.8848
1 5.7179 10.2615 13.5928
1 0.674976 7.33711 18.8973
1 9.20982 21.2754 7.70768
1 21.1104 5.84726 15.4426
1 2.61538 14.1696 23.1625
1 25.5696 23.7734 11.5652
1 18.5049 8.47877 16.0493
1 4.35784 12.4879 4.92001
1 2.77091 20.9043 11.3422
1 16.0914 15.5659 5.67281
1 6.66331 7.9904 22.1532
1 28.1471 4.81648 15.4028
1 7.50016 7.6572 0.854026
1 24.9515 1.70057 13.3127
1 22.4472 6.16712 23.9916
1 17.3973 8.94681 16.5619
1 2.70531 1.13082 4.73797
1 20.9425 13.1496 0.946049
1 4.85352 12.489 21.7076
1 10.4643 12.198 10.0156
1 16.9864 22.3108 18.2274
1 3.55141 11.3609 16.5243
1 16.0095 6.56853 0.494753
1 2.18558 26.483 16.454
1 8.48009 8.67765 0.321343
1 7.89193 14.7899 5.76316
1 27.3927 2.45499 28.0575
1 19.4657 20.1868 21.8225
1 21.4607 6.32928 4.24824
1 16.0724 11.1725 9.70861
1 14.6766 22.8633 22.5245
1 9.31501 6.47254 6.09597
1 11.8761 1.49355 9.67553
1 26.9968 9.22068 29.2748
1 0.990796 21.4758 22.8758
1 14.4305 10.6538 15.5419
1 22.3065 24.7027 24.0428
1 27.1124 18.0166 6.88009
1 2.72982 6.68977 17.6174
1 14.639 22.9007 18.9639
1 11.714 18.1796 3.11596
1 8.73399 24.5659 22.3272
1 13.3875 30.2236 7.48661
1 29.0001 4.25217 5.29152
1 3.01172 26.5265 0.67282
1 6.20038 3.71952 21.9861
1 27.7038 14.1492 6.90004
1 23.7019 3.27183 22.6988
1 14.7339 16.2001 3.89195
1 7.94782 18.3888 6.77765
1 10.8904 22.8168 12.9366
1 10.1909 1.29079 12.7145
1 0.659593 3.35948 9.02074
1 21.5766 29.1619 21.5816
1 27.1711 8.38634 12.5969
1 25.2244 16.016 21.326
1 14.0853 0.390941 3.94995
1 29.6377 5.27452 29.0561
1 10.2718 8.79919 0.403907
1 2.12262 0.808436 30.3047
1 22.0845 12.5124 6.15673
1 18.892 3.99837 29.9415
1 24.3802 6.48381 21.4012
1 15.7558 21.7605 1.73978
1 27.3556 5.10727 18.3877
1 14.2503 3.52994 5.62398
1 16.5321 2.46144 23.7907
1 2.94366 3.06332 3.39985
1 2.56974 7.47837 14.977
1 24.2624 0.726532 22.0618
1 12.5755 21.8906 2.691
1 9.43281 20.0344 17.5225
1 1.85305 23.0586 28.0826
1 19.5439 19.0708 4.69744
1 23.5151 0.214254 6.10755
1 25.1672 21.3855 4.40567
1 16.2945 15.3209 20.1733
1 19.6535 21.8376 0.945704
1 20.3139 29.4773 1.14083
1 25.2513 26.2407 21.0696
1 23.3691 19.5534 29.0032
1 29.3293 7.67686 11.6061
1 9.82133 3.4867 21.6211
1 11.6815 16.5447 25.5171
1 18.6446 2.04286 3.20455
1 8.36978 21.0535 3.10743
1 21.1586 4.5186 11.1839
1 27.6255 2.33358 25.6046
1 15.1813 13.1156 28.5897
1 28.8983 25.4955 5.32592
1 5.0059 14.1082 16.9578
1 21.0351 1.58326 2.12412
1 12.7007 5.10217 15.1763
1 15.074 8.75596 27.5256
1 5.23907 13.8789 22.4726
1 29.3378 26.8453 22.5813
1 7.29612 17.448 3.09649
1 4.87876 5.20623 5.71469
1 17.5707 24.4389 16.5076
1 24.1413 7.53503 26.332
1 26.0577 12.3408 9.25455
1 13.7794 14.1241 2.2771
1 14.9317 27.0984 1.3567
1 4.04115 2.44213 0.784752
1 7.13557 4.72583 18.5225
1 14.1479 7.96807 16.2857
1 22.4354 24.8295 18.8916
1 0.331952 20.1529 27.4028
1 10.6618 23.133 15.2646
1 0.876946 5.9466 23.9321
1 2.12094 6.91958 19.0648
1 21.7391 13.7734 23.8082
1 6.5191 17.0532 20.0869
1 17.7845 7.86565 6.50708
1 6.12668 13.4973 26.8948
1 27.1097 27.6204 20.057
1 3.53569 27.2846 5.45645
1 13.0423 30.1221 26.2001
1 20.0484 7.35408 24.7125
1 18.2869 25.6379 26.669
1 30.0981 11.5246 25.6201
1 6.2739 2.51509 24.4855
1 5.96488 10.6285 0.488744
1 11.3015 28.4753 7.30713
1 17.1368 24.0179 17.8761
1 15.6899 8.67893 29.259
1 2.74121 17.9514 28.127
1 13.9206 24.6121 10.6835
1 23.4313 1.63377 2.9856
1 26.8524 29.8889 10.9929
1 10.6786 8.40883 3.86665
1 13.7355 10.4932 6.99614
1 3.16184 18.7541 18.2112
1 0.417046 10.4889 16.4208
1 9.85008 15.6483 21.0584
1 10.8771 15.2351 4.48349
1 9.158 4.88491 14.4978
1 15.8566 11.9919 1.33069
1 10.8994 30.0675 3.62173
1 18.5479 10.6155 26.3721
1 11.451 13.911 22.6462
1 4.49967 2.90273 16.9123
1 7.8465 18.9008 0.853278
1 16.6569 28.1601 24.5231
1 10.8892 8.21454 22.5489
1 15.2632 3.25562 6.22651
1 0.302653 7.35237 28.0051
1 20.5713 0.244497 30.2657
1 21.8211 9.46159 5.79987
1 20.9863 11.918 2.91057
1 6.31273 22.838 25.6137
1 10.8637 4.27698 27.3262
1 10.2293 2.13403 13.9574
1 1.04833 10.3085 15.2317
1 0.914225 14.7023 29.5815
1 18.5355 12.9731 21.6586
1 18.4248 22.5529 10.16
1 11.8596 8.26694 24.6125
1 24.2877 0.539396 10.846
1 13.6737 8.18331 20.9853
1 17.8666 0.540477 12.6315
1 27.4467 19.3841 21.2682
1 11.9565 5.01379 7.07956
1 2.26366 30.2449 22.8135
1 5.18959 15.9743 7.74333
1 28.0695 2.38352 23.1615
1 29.8652 15.4983 29.7038
1 15.0768 5.10485 26.703
1 15.0201 18.0669 9.28386
1 12.7633 27.2623 11.2296
1 1.42321 10.7442 23.448
1 1.16968 19.0064 23.2047
1 23.8261 16.1679 14.7351
1 3.23265 20.096 3.44431
1 20.5092 7.9108 2.92012
1 8.26665 5.07783 11.6324
1 26.4124 16.8588 15.416
1 5.73705 8.86076 22.8053
1 6.79362 24.4372 29.3881
1 17.0062 22.3492 23.1609
1 13.0988 20.4806 13.1546
1 3.40808 11.1552 20.9517
1 15.7465 21.7229 14.5353
1 13.9823 19.9881 15.5437
1 9.75454 25.3554 5.24152
1 5.39986 26.4781 19.8927
1 15.2499 13.1713 26.186
1 13.1946 17.9397 12.1042
1 21.7577 22.6251 11.4116
1 0.834167 0.76738 19.4765
1 12.3817 17.6227 27.532
1 14.0896 29.3341 3.00412
1 16.0974 6.33243 15.8779
1 14.7945 22.8646 14.0446
1 14.6115 6.37716 4.0013
1 17.6231 29.7139 10.6413
1 8.35515 7.42513 20.6825
1 16.9069 6.48538 24.7992
1 20.8547 8.92236 13.952
1 25.7401 18.117 10.0687
1 14.033 8.78382 8.65534
1 9.68909 29.4637 3.97203
1 7.70217 28.934 30.302
1 21.574 9.04618 25.8648
1 9.32805 27.8913 18.4825
1 15.3603 5.46431 23.8464
1 3.38307 18.2639 11.0641
1 25.5643 28.7463 4.78652
1 1.30348 9.88106 29.5488
1 20.9921 6.72187 9.73199
1 20.5903 4.27256 8.80631
1 28.7006 8.77041 29.7277
1 12.6411 21.3782 28.4122
1 27.7406 21.8674 10.72
1 26.7236 18.9702 28.2294
1 24.5957 7.73272 24.2205
1 8.75584 5.16628 20.0603
1 23.0164 6.54742 7.32998
1 10.1451 17.7796 16.3551
1 16.4389 20.7262 4.82572
1 27.5291 29.8309 27.738
1 27.6773 8.48314 15.1891
1 2.63671 19.1313 27.54
1 20.0039 4.06419 19.9773
1 21.0929 11.9093 22.8758
1 23.3386 23.8172 28.0783
1 25.5009 9.402 25.8786
1 9.30068 8.60032 6.03453
1 1.26759 14.1367 14.2544
1 29.8992 12.9035 1.49376
1 30.0283 8.7405 24.3809
1 13.0593 20.0067 28.5155
1 26.0844 6.63292 1.17684
1 21.8186 22.217 6.93363
1 16.0675 25.9351 18.5331
1 14.0052 29.9565 28.7165
1 28.6116 27.1428 16.696
1 6.31109 21.3841 16.3285
1 8.30765 30.285 3.38418
1 0.518292 21.0597 18.7152
1 26.4034 24.3617 23.48
1 25.4485 25.176 21.9539
1 14.883 4.48786 21.6788
1 11.5204 7.95314 18.3268
1 17.5545 9.63744 10.9053
1 24.2854 7.19225 17.9384
1 20.0325 20.3715 16.7489
1 2.90727 2.85788 8.96846
1 11.0486 26.9295 12.3637
1 29.9622 7.65422 7.25727
1 1.37437 14.4324 11.2859
1 11.8256 25.5078 25.4917
1 20.237 2.72517 20.698
1 9.68729 26.8156 7.67475
1 9.57624 6.78346 1.86271
1 12.049 6.85915 24.7713
1 15.9425 24.1012 14.594
1 17.2944 5.26799 13.7611
1 9.03242 1.498 8.49671
1 13.4415 13.3342 10.4338
1 27.3035 5.04513 9.86832
1 2.61367 13.7515 11.3048
1 29.0422 14.4314 20.3431
1 19.7002 18.0811 30.3007
1 21.2067 22.8877 19.1475
1 3.9308 2.24361 25.3517
1 27.9668 9.70242 4.47083
1 7.35283 23.1663 27.3305
1 26.7316 3.88997 9.62379
1 1.39108 3.18413 0.478464
1 18.2272 22.9021 21.775
1 17.3969 17.062 16.2225
1 7.95498 19.0372 5.05825
1 0.801677 1.49866 20.8454
1 28.1546 13.5426 5.61661
1 19.6647 19.121 17.1317
1 9.95267 27.4778 25.5573
1 29.1895 5.56509 19.7266
1 3.0811 0.439789 9.31877
1 5.8535 4.12397 27.4337
1 25.5061 14.0205 11.5533
1 20.5254 6.51087 25.9756
1 21.5495 21.6544 15.0168
1 26.6856 0.66788 3.01637
1 16.1222 29.9556 10.8686
1 11.3032 2.91215 7.69898
1 22.8734 1.4564 5.7961
1 11.2797 10.4184 1.99954
1 29.587 17.9011 21.6939
1 18.4362 29.879 24.8804
1 13.6487 10.5145 25.0774
1 2.52571 29.8627 17.8896
1 23.0217 15.1019 20.0746
1 29.0185 20.235 3.18021
1 29.8305 18.676 25.2663
1 13.9801 5.56789 13.4736
1 16.6421 9.58543 25.2676
1 23.1325 14.4123 10.5526
1 27.5254 17.1425 16.1547
1 17.4168 20.424 10.6887
1 1.78891 17.4819 25.0002
1 23.2252 14.6728 5.59086
1 28.4849 18.2945 1.36634
1 2.56795 18.1953 9.96666
1 14.0037 4.14933 27.343
1 9.94432 9.44788 17.5041
1 1.51978 28.0191 26.3605
1 6.00139 2.94759 4.30268
1 1.06036 7.60563 22.7584
1 13.6245 18.9475 5.1108
1 26.7928 27.3038 12.7541
1 1.79491 5.6368 21.4066
1 16.4404 20.4147 9.71861
1 10.7039 1.06279 10.3752
1 0.498232 7.51095 20.2058
1 2.73525 10.3252 2.55455
1 30.2534 5.18291 0.751589
1 30.3273 28.175 12.6815
1 19.66 0.446823 21.4423
1 24.4538 24.2756 21.6176
1 24.7435 26.4527 15.0577
1 18.7567 6.07103 15.3966
1 28.5092 18.3233 25.7229
1 26.2997 6.15921 18.8431
1 28.9602 6.07296 11.4152
1 4.15466 22.0703 21.7385
1 3.51342 4.59602 3.81087
1 14.8104 13.3296 5.93981
1 4.07673 13.9251 23.4634
1 22.7528 15.8685 3.10568
1 20.5961 13.1995 6.26307
1 25.2913 6.86489 28.9092
1 0.75807 30.0486 9.7642
1 9.97504 12.5345 6.63837
1 18.855 17.2053 23.5217
1 17.288 28.5125 13.6825
1 7.47643 21.7236 10.1538
1 0.867223 20.4236 4.63829
1 26.0572 10.0805 3.33912
1 2.70017 13.9723 27.5808
1 25.1854 3.6536 9.94371
1 29.0577 23.9693 21.1993
1 7.86229 6.64644 6.38222
1 1.09599 29.0896 3.49675
1 25.4422 14.3481 6.18243
1 5.43618 1.87282 0.534763
1 26.6113 27.5198 6.51037
1 28.6093 0.727044 13.1461
1 24.3036 6.86741 2.96981
1 20.716 17.667 1.27802
1 14.6549 7.04189 13.7196
1 27.0661 12.0216 17.3504
1 2.90434 0.805409 7.01441
1 22.7993 11.5397 7.15324
1 10.5703 9.21912 11.1611
1 17.5224 1.77626 0.698217
1 5.393 16.2989 12.8204
1 4.59446 6.85808 22.915
1 23.7649 24.6581 9.06765
1 16.022 21.5968 17.5608
1 15.8494 15.5248 21.4487
1 11.6488 11.9329 29.0008
1 26.8878 10.7569 28.6967
1 25.1302 25.131 28.6645
1 12.1835 28.7949 27.8695
1 28.0081 28.1881 25.7043
1 21.6663 6.60185 30.2021
1 9.20892 15.6916 28.7413
1 6.57375 11.5557 28.1349
1 25.6174 2.23284 16.8192
1 6.31799 29.9141 1.96849
1 14.4026 28.8938 14.8122
1 1.44057 16.545 8.22123
1 26.2407 24.2236 10.3086
1 24.3711 3.08003 8.75509
1 16.2723 26.0827 13.3081
1 9.85922 20.1836 30.0674
1 9.16999 17.2719 12.4707
1 5.62094 16.098 4.52517
1 6.08304 12.7291 18.5766
1 20.7057 7.02171 16.1567
1 18.256 17.3027 1.78183
1 3.67862 19.7551 13.1043
1 5.61651 17.9953 6.81143
1 6.84611 9.16302 15.607
1 2.91713 22.0796 12.2014
1 20.2746 3.9343 16.3601
1 18.7303 17.6417 4.28128
1 7.40696 24.0746 17.2988
1 29.3346 13.7482 26.3674
1 21.3765 4.17765 27.3253
1 13.542 22.2723 27.6474
1 21.1171 12.2253 19.4208
1 18.9247 15.7797 14.8008
1 13.7543 6.96935 17.379
1 28.1342 29.8363 10.4871
1 7.14258 9.60886 24.6564
1 6.38046 21.6256 12.2161
1 12.3208 15.324 20.6658
1 11.7733 10.454 5.94136
1 23.8134 5.3333 21.1459
1 11.5932 2.08765 24.7916
1 13.3806 0.2883 5.10774
1 18.2298 10.1774 13.9368
1 27.704 17.1838 1.64174
1 5.35601 23.5961 24.2697
1 17.8571 2.98115 21.0093
1 10.7587 6.04402 12.6444
1 21.5396 3.66095 23.6362
1 13.1573 3.52866 10.6015
1 23.5934 1.09187 24.0863
1 25.8593 26.6174 1.43337
1 4.47272 11.1362 27.1428
1 4.14791 16.6524 18.9043
1 28.124 25.8631 4.24666
1 0.361514 22.6437 4.09107
1 29.2044 25.7091 23.3822
1 15.4731 15.2462 23.871
1 16.0441 29.9085 28.4713
1 2.09359 11.7683 24.2998
1 3.52998 16.438 16.9081
1 17.1505 28.038 23.0726
1 23.9105 19.1273 19.1062
1 5.17916 30.2966 14.0605
1 13.3476 21.7923 22.7085
1 8.56673 9.79691 3.63614
1 4.66553 16.9181 16.1766
1 5.46354 4.68166 0.727143
1 18.3423 15.0247 17.9452
1 25.4904 8.83653 6.87244
1 25.8005 3.29063 23.8418
1 26.8255 4.06988 4.92811
1 25.5965 6.94451 21.194
1 10.9947 14.0433 15.6666
1 17.5882 27.3744 11.355
1 12.3632 3.22711 16.4526
1 19.6274 6.09342 9.88824
1 3.04037 27.9356 2.65369
1 19.7381 1.16687 2.97357
1 24.078 16.8031 22.0269
1 25.2159 8.43347 15.898
1 28.0059 18.6241 15.2689
1 4.21586 17.9979 28.7687
1 12.4763 0.658785 15.5401
1 24.2625 17.7368 12.1569
1 27.3032 12.2961 3.5749
1 23.6309 23.1667 25.6315
1 13.1845 30.1355 29.9056
1 4.39747 11.3751 3.95309
1 11.5415 18.1675 28.6184
1 7.45594 22.0655 4.07948
1 30.1074 4.71687 4.55468
1 20.0857 17.1743 14.2387
1 26.9659 22.8055 7.66768
1 7.03876 5.03493 27.3392
1 21.5635 24.7468 10.8787
1 3.73594 15.7007 21.3256
1 4.46042 9.18404 21.9968
1 12.0586 2.4658 19.2274
1 7.68315 12.3833 11.3887
1 21.9254 23.3364 28.2629
1 21.965 1.30986 11.0444
1 21.2146 26.4149 17.999
1 21.0092 24.4319 26.0017
1 18.4318 15.8958 20.9067
1 28.0246 9.4239 0.968529
1 12.7094 16.9399 13.0198
1 29.8701 3.56267 25.7252
1 20.6112 25.8491 9.29235
1 30.2109 23.6567 18.2394
1 28.3788 12.6484 18.6636
1 8.32737 15.5821 21.5885
1 1.86517 19.2995 16.9506
1 9.59903 0.314258 23.8313
1 10.1262 21.1436 10.9263
1 1.71954 17.6452 21.0326
1 26.4085 17.0257 1.16632
1 6.10311 0.314661 12.9477
1 8.67826 12.6461 6.12622
1 5.67913 27.9433 26.1262
1 12.0178 4.69096 2.49524
1 13.3898 26.2346 23.6478
1 16.6346 14.2609 24.5259
1 19.1318 2.15695 10.417
1 24.6952 20.0463 5.24247
1 18.1509 24.6478 27.8715
1 12.3527 2.31989 23.5789
1 17.1204 25.6948 19.3808
1 14.9759 5.50463 15.9401
1 16.159 18.3425 7.97065
1 10.8616 6.07538 24.0252
1 28.0951 12.7195 16.45
1 19.7091 7.60963 1.30886
1 15.6677 2.4759 7.68408
1 4.46578 25.7699 3.14715
1 8.14206 26.6888 29.2184
1 21.4743 23.543 23.4452
1 12.6607 7.19006 20.8682
1 5.03777 19.3149 6.43729
1 3.38407 10.2278 10.3083
1 25.4114 14.077 27.1867
1 11.0561 24.6004 17.0996
1 30.3441 10.219 13.1925
1 26.1206 8.13657 22.0135
1 21.3703 6.38923 7.96119
1 14.7245 11.0784 4.02113
1 26.59 11.6819 29.735
1 7.22924 26.7022 7.01823
1 8.13535 29.2389 21.959
1 17.7281 14.4473 3.04332
1 7.4182 12.792 1.98757
1 10.0378 7.39001 14.4528
1 13.9531 24.1953 7.87219
1 3.07045 18.6243 23.3199
1 15.9371 16.4415 23.5766
1 0.799788 18.6346 21.6575
1 14.0771 7.85633 1.97925
1 16.9016 1.09092 15.8
1 13.0173 14.9923 13.7308
1 8.55275 10.4674 4.92353
1 10.6662 1.21188 22.4854
1 25.0707 7.06294 11.4193
1 18.8402 25.1873 29.5418
1 19.308 5.33184 23.6533
1 13.986 16.0529 28.1295
1 13.1157 7.23019 0.985498
1 16.9792 16.1667 22.3665
1 3.60666 24.5183 2.91797
1 11.1597 9.61143 29.8051
1 1.02544 21.1239 21.4276
1 28.7604 0.593766 16.7234
1 5.81567 11.8885 26.8596
1 0.848902 16.9558 5.24792
1 8.60012 2.6638 14.1174
1 13.8286 20.4337 0.250024
1 29.2632 1.27133 14.4484
1 6.02704 22.5102 8.53681
1 12.4809 13.2793 8.1973
1 23.1634 22.8886 12.1399
1 27.0232 24.9218 6.79771
1 17.0781 4.6774 19.4847
1 9.20229 21.3468 0.863518
1 6.78738 24.9397 5.97882
1 19.9145 23.7032 4.10779
1 2.07018 7.46318 16.4218
1 9.32797 10.5385 14.0762
1 25.1449 2.13569 7.10305
1 14.1465 26.7932 10.6365
1 21.0315 28.402 8.51643
1 11.0076 16.9659 10.9066
1 4.64764 13.152 7.55407
1 26.5036 2.56029 6.89616
1 21.6761 29.3956 26.3073
1 3.70656 12.3986 20.9338
1 29.1955 11.686 0.856424
1 7.79062 2.72929 15.4824
1 30.1437 22.6787 23.0571
1 17.0574 3.07274 28.5321
1 2.39344 21.342 24.4781
1 17.3754 20.1479 15.3365
1 14.9778 8.32629 20.825
1 5.11287 1.50436 17.4427
1 4.60834 9.79151 4.95764
1 4.99632 26.0188 1.9017
1 24.8373 5.15608 4.34309
1 20.8958 10.1428 16.2371
1 3.73146 12.1838 7.46703
1 10.3335 24.1516 9.05274
1 23.7912 20.6626 12.5768
1 18.0839 3.0612 15.0025
1 5.62981 18.2664 18.1831
1 24.4287 23.0377 22.6502
1 4.56253 16.6243 3.89891
1 6.56499 11.1809 3.27309
1 19.093 6.93118 10.9067
1 27.3357 6.17551 15.8549
1 11.2714 17.8093 23.5673
1 11.5495 24.8222 0.999769
1 17.6547 16.3551 28.698
1 16.4171 26.823 17.0998
1 26.6266 26.6159 21.0852
1 7.96265 6.91623 25.7663
1 1.83085 28.0944 23.8282
1 13.4276 24.4541 2.71606
1 18.9821 30.3247 18.7493
1 13.7774 11.8071 10.4828
1 6.26255 4.56438 16.2671
1 20.0981 3.06883 8.36079
1 1.71993 20.4758 10.278
1 12.3156 2.70915 26.0227
1 4.80388 18.579 15.0884
1 21.9303 18.7724 9.80908
1 16.7212 24.462 28.0303
1 23.6472 14.7845 17.7721
1 12.8412 9.83086 7.972
1 9.90863 24.4896 6.62782
1 16.1196 16.4853 28.7648
1 10.6935 30.139 17.1196
1 5.51439 7.79449 5.74479
1 21.2341 19.1763 4.85981
1 5.32187 0.234333 15.5196
1 7.00005 21.0367 24.1063
1 5.23099 16.0108 18.2822
1 17.368 18.6272 2.38865
1 21.925 4.65587 26.0124
1 22.8756 5.53965 6.08112
1 20.1263 26.3452 18.9868
1 18.6863 9.68491 15.0766
1 7.10998 12.9006 24.1195
1 22.2408 8.49653 14.4703
1 22.1854 25.4004 17.7407
1 8.3081 16.7898 1.8086
1 0.707726 14.9304 3.65966
1 29.7066 15.2168 26.227
1 5.92745 17.65 2.15731
1 25.5412 19.6577 26.5652
1 4.0695 28.2713 10.3204
1 1.05075 3.10041 29.07
1 19.8813 7.80456 28.2293
1 22.8763 16.0228 17.2804
1 28.0869 15.2299 8.88843
1 3.43381 4.59311 23.3414
1 18.3936 8.24393 0.640564
1 17.297 4.33663 11.4796
1 10.5099 5.09819 24.9189
1 0.235441 1.1175 3.97888
1 0.275495 10.6468 1.34567
1 25.6389 21.261 10.9773
1 15.408 27.7174 24.6056
1 27.3842 19.8162 1.18725
1 5.33656 8.89126 3.78677
1 6.01809 8.47144 0.909604
1 19.5416 11.3805 11.7204
1 23.2193 4.2926 23.5536
1 17.2421 5.78398 20.5321
1 27.8631 7.05875 14.5911
1 11.5094 17.2995 21.1268
1 18.1804 6.08986 26.5703
1 5.28851 18.571 12.0573
1 22.2099 9.21479 7.30512
1 8.27466 29.7985 27.4754
1 29.6075 1.49319 27.0862
1 28.7941 24.997 27.5596
1 2.17283 24.2134 10.7389
1 20.7459 16.7207 24.9511
1 13.1272 11.7666 22.6196
1 2.72879 10.1584 26.1288
1 4.5714 27.8295 29.9083
1 23.6219 4.19564 8.42807
1 5.93052 7.32267 20.9946
1 28.0934 20.6437 22.1363
1 26.1964 5.54412 10.7301
1 13.3274 5.65333 1.28766
1 8.54114 16.4418 14.8646
1 23.6705 16.6141 9.80182
1 16.0961 19.9573 22.4783
1 2.32985 4.69066 24.1199
1 21.9409 5.1662 22.9254
1 23.7767 3.88778 15.5445
1 26.7136 16.6667 13.6573
1 8.75142 28.9462 9.89905
1 2.25735 23.9933 13.7447
1 29.7863 16.6344 0.680164
1 6.20027 21.8397 6.96269
1 15.2797 27.1074 16.0493
1 9.14651 22.4706 30.0948
1 3.45669 26.2953 17.5842
1 4.31945 27.0892 1.11361
1 14.5467 4.45024 19.1823
1 20.045 13.8401 28.9522
1 14.2226 28.2304 1.13199
1 15.3857 24.2448 27.2907
1 8.97277 13.6117 1.9702
1 3.12122 25.4513 11.3329
1 5.68672 12.0555 5.67628
1 24.9607 21.169 20.6032
1 24.8105 17.874 14.5019
1 0.21738 16.8318 15.1404
1 11.505 10.3438 4.55875
1 15.3941 15.7063 27.8923
1 17.9167 24.6641 21.4971
1 18.3652 10.4899 5.21822
1 18.2552 19.4267 26.8964
1 2.45132 4.19987 18.3595
1 16.675 2.41132 5.60072
1 0.696682 5.50118 12.8308
1 3.43141 13.4899 19.7678
1 2.27287 15.8212 16.6065
1 18.9804 22.6107 25.98
1 19.8713 16.9111 2.3249
1 15.2613 23.9152 16.7974
1 1.04928 9.3771 5.42691
1 10.1722 17.3267 6.24957
1 27.899 29.2128 18.5236
1 14.9184 11.5415 7.22491
1 3.01944 14.867 20.2393
1 18.6068 18.0656 22.5909
1 27.0372 11.7882 1.20249
1 3.67642 4.99331 15.2328
1 12.4617 28.1083 16.4516
1 9.94617 14.155 20.6149
1 3.49587 21.9985 29.4998
1 7.59134 10.8103 25.3541
1 15.9307 2.3434 25.0242
1 19.5605 20.0507 12.0959
1 16.5176 18.9961 18.8312
1 8.20186 27.0833 4.46878
1 7.65393 16.1318 29.3309
1 28.683 23.5619 17.9697
1 24.4585 1.37296 8.1891
1 17.6138 2.4943 6.66174
1 11.3075 3.77471 6.54792
1 18.9968 2.63181 17.6969
1 25.5398 1.42986 0.358138
1 23.0727 21.6382 29.8563
1 5.86995 10.963 17.1676
1 25.8272 0.887438 26.6014
1 20.4445 7.08327 5.65613
1 7.48021 29.1937 1.58422
1 30.3287 10.8342 9.04285
1 9.30249 3.74579 6.33459
1 3.41691 17.0648 25.0491
1 17.7937 5.65629 8.23667
1 22.0288 28.1705 1.65593
1 23.7447 28.2273 21.0487
1 14.963 3.27117 12.9813
1 21.335 25.372 13.1928
1 2.47921 10.2729 13.2797
1 10.537 18.3815 21.4995
1 22.0334 5.35045 29.4113
1 7.91643 7.14315 12.9049
1 17.1881 13.8494 9.52332
1 9.02157 23.8604 0.52108
1 25.1453 2.646 0.362886
1 26.299 29.123 0.940211
1 19.2329 27.0179 18.0866
1 25.5904 5.13556 6.72216
1 13.2899 8.72831 4.07154
1 29.4304 6.07021 21.9639
1 26.0208 6.78049 19.9154
1 13.6552 22.9778 14.5529
1 10.2746 20.9157 6.83537
1 10.0737 10.9831 16.9863
1 25.8453 15.5045 16.0671
1 19.2275 4.92743 24.9432
1 25.8965 7.83278 23.3964
1 25.3206 11.8992 5.62641
1 2.97596 19.3953 19.4691
1 14.8769 2.48647 8.78486
1 6.6809 16.6364 24.3033
1 0.893999 22.4537 18.0674
1 11.4538 9.11033 13.3507
1 5.85198 20.2626 9.25244
1 7.75734 11.2302 11.9395
1 22.7324 2.836 3.0812
1 12.5264 6.78415 17.6945
1 9.11801 24.8543 29.8704
1 13.1594 12.1648 16.9424
1 15.3365 25.2926 14.2871
1 13.9867 3.8612 24.5956
1 26.2678 21.1527 8.10647
1 20.8913 4.13234 3.03246
1 8.45866 18.236 21.5048
1 12.8049 9.24173 25.4191
1 4.76787 14.6032 18.1752
1 23.0142 13.3454 5.49424
1 12.0258 24.542 4.91557
1 19.8251 21.419 25.8759
1 16.6759 0.415936 7.38995
1 19.8633 12.5532 3.42824
1 11.3457 20.2988 1.40437
1 12.5872 0.747843 12.9787
1 23.7784 6.16081 1.74517
1 15.8497 10.165 4.37185
1 29.5551 0.44261 11.9268
1 19.8487 30.102 6.09822
1 21.9749 8.33122 26.9717
1 13.1064 29.2463 22.7907
1 23.6324 13.0145 24.5092
1 27.4534 22.6461 2.65836
1 15.8059 9.41295 24.2573
1 5.49212 10.5508 5.74669
1 12.2033 28.4894 4.67383
1 4.05832 30.3003 13.5355
1 4.53572 29.4472 17.8165
1 22.5741 6.94687 5.06059
1 10.8879 18.1032 5.16818
1 5.24822 10.5898 14.9686
1 1.04076 25.6306 4.71373
1 7.22965 23.8137 26.1123
1 18.0448 23.1434 13.5957
1 6.14511 26.4733 22.8181
1 24.8521 23.0443 15.3237
1 4.81768 28.91 6.56553
1 17.1436 11.4518 19.6337
1 11.0637 8.20146 8.71503
1 25.8405 22.7075 6.25894
1 14.5355 28.0927 10.0907
1 0.290767 12.9261 26.3869
1 25.4493 9.60301 19.4557
1 3.81393 22.354 4.27993
1 23.5595 6.67108 8.78731
1 28.0991 24.7118 0.786162
1 8.03049 16.2239 18.6068
1 16.4905 1.21804 4.8734
1 17.6566 3.64147 4.98822
1 27.2329 0.282415 18.9246
1 20.0816 12.1962 7.16448
1 21.8768 7.80938 5.7766
1 9.57799 20.1085 18.9742
1 2.44664 27.3745 6.27763
1 22.7486 13.9719 11.9593
1 29.5753 12.041 22.9703
1 18.3352 10.4743 6.6353
1 1.11136 10.8771 4.88123
1 15.5011 14.2065 11.1537
1 17.6432 28.4388 10.2627
1 26.8594 23.5744 19.7763
1 9.57528 22.295 15.9649
1 17.7005 7.32687 24.1346
1 26.91 16.6812 29.9263
1 22.0701 17.2915 0.67728
1 13.2232 6.01582 25.5595
1 4.10918 6.85012 17.8553
1 16.1138 2.45371 27.3939
1 17.9443 28.8884 29.7608
1 17.6354 1.72743 14.7562
1 30.0317 17.5189 6.43741
1 17.02 7.88485 7.78235
1 25.1879 3.32805 22.3518
1 20.2023 24.9181 20.2047
1 10.5704 28.2818 1.77899
1 14.7191 26.4797 5.70305
1 9.55651 30.0667 0.992908
1 0.570288 28.3649 21.0027
1 17.0586 3.81039 13.7293
1 8.26739 8.20953 7.84699
1 14.6908 10.0937 18.2191
1 20.2268 22.1146 2.41211
1 25.093 5.23255 12.9604
1 17.5953 6.08297 3.15257
1 0.236767 22.2126 10.5638
1 13.5465 25.0084 24.4691
1 30.2921 2.08349 14.2558
1 1.91259 28.6163 7.21687
1 11.1624 8.93707 27.1749
1 20.4431 5.37199 7.87775
1 10.0433 13.9854 8.89832
1 2.94937 26.4789 25.6446
1 1.69197 21.183 14.2239
1 20.35 30.1795 14.2135
1 24.9897 14.3481 18.1942
1 13.5072 15.3383 9.18724
1 2.2483 20.0214 4.73163
1 26.9647 27.3281 22.3746
1 14.9377 24.2794 19.1021
1 0.281475 15.5016 8.27377
1 1.04113 1.24838 10.6418
1 23.4844 17.4473 27.4459
1 14.8792 16.0812 5.34181
1 6.00383 24.3197 0.666824
1 11.9265 19.2766 8.88072
1 22.0071 1.13165 20.6555
1 28.0225 22.7594 16.9193
1 8.99122 5.80583 7.49123
1 23.6923 16.4982 19.8356
1 15.4559 12.9331 11.912
1 23.6081 20.9776 24.0009
1 8.54683 19.1258 19.4279
1 4.46161 22.7377 10.5536
1 14.9092 20.4934 29.4282
1 5.3955 4.79632 12.5065
1 8.70314 11.1468 17.0592
1 9.96112 12.025 3.32717
1 20.8578 1.46539 16.2352
1 28.0571 10.2243 23.4951
1 5.13413 13.4989 12.2851
1 23.5541 24.0526 18.6471
1 20.1259 15.4901 1.67892
1 30.2152 18.0022 13.9962
1 13.3115 20.4545 16.5111
1 9.51665 26.0845 25.1122
1 13.7734 10.8262 27.7207
1 18.936 4.35607 11.6886
1 24.2762 21.4295 2.18508
1 3.65773 4.55358 5.39631
1 15.2084 28.863 11.3459
1 21.4273 14.1262 7.26998
1 14.3979 12.6689 17.4268
1 12.0221 7.77588 9.54105
1 2.41174 26.7674 11.1865
1 6.39579 1.69038 12.7172
1 3.1562 0.862 12.9059
1 2.75393 29.0617 28.0525
1 29.1568 29.655 18.3456
1 16.6629 19.0962 29.2296
1 9.52278 15.8646 27.5247
1 27.355 15.1087 27.2476
1 21.7705 23.4676 10.0944
1 7.43287 27.3774 22.9661
1 24.1825 27.1787 3.79003
1 28.995 13.449 17.6129
1 21.9315 28.1663 20.6868
1 6.47728 20.2196 6.89007
1 13.1311 14.1746 11.4358
1 1.91505 17.8749 23.7475
1 21.1272 2.66766 23.0389
1 27.5341 16.8521 4.8625
1 1.87859 24.5725 16.8755
1 11.9451 27.8207 9.85762
1 9.18918 3.541 3.21716
1 12.6425 20.3403 2.41038
1 21.5163 2.79673 2.67753
1 1.67252 23.6539 24.7907
1 5.48219 25.1509 3.97247
1 8.44905 24.9469 16.493
1 6.93325 17.0064 16.6708
1 23.7643 28.6506 14.5325
1 7.11864 28.9125 5.87743
1 25.8704 3.11799 17.6905
1 9.05347 25.7161 20.1065
1 15.4735 6.61563 24.7058
1 15.6739 1.02706 10.452
1 25.1484 4.10665 26.9947
1 9.41248 21.6359 26.4675
1 4.32009 23.5627 6.33652
1 12.2458 9.13758 6.62926
1 15.1204 1.59109 3.93193
1 14.6769 29.3659 1.6696
1 13.9497 0.314436 0.90733
1 23.6038 4.89277 11.0673
1 20.5247 14.2041 24.1665
1 18.1193 14.1267 24.7012
1 22.2731 15.7667 5.40308
1 29.9097 6.54696 1.44356
1 24.5684 12.8586 18.8487
1 16.7124 25.3922 23.2167
1 5.89999 7.90607 19.6475
1 5.4402 20.2991 20.1707
1 2.66779 4.05709 15.0676
1 19.2895 24.1717 6.13281
1 16.8142 18.512 13.3686
1 12.5765 13.0943 24.9204
1 15.9024 2.97709 2.08282
1 12.1977 11.4674 13.1797
1 19.9876 10.7337 6.50176
1 10.7637 2.95625 30.0176
1 25.8255 15.9918 12.8861
1 29.4443 12.024 10.6076
1 25.6692 9.5871 1.47394
1 5.30659 8.74156 29.678
1 21.6064 24.0187 15.4064
1 8.05371 23.8529 1.67451
1 20.0897 15.6796 5.57581
1 7.91225 2.4599 23.9451
1 7.76659 17.9934 28.0193
1 11.1571 26.8484 7.34615
1 5.76404 24.3942 8.14505
1 27.0942 28.7853 9.41176
1 17.9689 21.9982 24.0171
1 3.79009 25.1711 25.77
1 9.26592 27.4591 28.4006
1 27.8326 19.8396 11.3914
1 16.9256 3.78787 15.3221
1 24.6159 24.1786 24.922
1 28.3701 14.9341 2.32243
1 20.4644 9.82479 20.0381
1 29.8597 16.666 2.84622
1 7.86309 19.1045 10.991
1 10.4351 4.10019 22.7421