4096
Atoms. Timestep: 700
1 25.6964 10.6107 15.6444
1 13.1096 22.2436 15.1488
1 6.49037 6.47615 28.9659
1 22.1249 2.74446 22.2148
1 1.66991 1.35207 2.06446
1 5.25051 17.9764 18.4374
1 13.3784 4.82672 6.63846
1 29.7048 30.2066 12.1941
1 20.7686 2.77624 6.48031
1 23.3973 16.6672 1.94907
1 26.791 7.53563 19.5541
1 6.99085 1.57353 11.8521
1 9.17836 20.9668 9.31542
1 17.7334 0.697588 0.373788
1 19.847 25.4356 19.0142
1 1.16714 1.51905 28.3022
1 29.5118 1.11505 14.3993
1 12.3755 18.9775 29.0726
1 0.716373 19.7534 7.23256
1 1.01761 1.45599 12.0471
1 11.5252 28.0314 5.33682
1 13.65 19.0546 4.88878
1 15.4758 8.34745 15.9867
1 7.22742 20.3751 27.4119
1 5.01996 11.1619 8.34445
1 30.2729 13.9382 9.47584
1 17.5277 29.7498 14.6463
1 10.4958 3.24066 11.6896
1 22.5002 11.0795 26.444
1 6.67011 24.2166 27.84
1 11.42 18.8039 14.9387
1 30.3534 20.138 1.92852
1 27.5844 9.21679 11.5702
1 13.5942 11.7451 12.6096
1 1.56477 23.6376 10.4264
1 6.68514 25.169 16.024
1 20.986 3.37468 8.94852
1 22.9698 28.0788 24.3856
1 0.271174 24.0824 10.3049
1 23.6024 9.69564 23.3207
1 16.8031 6.15636 23.0468
1 1.50184 16.9552 0.268337
1 13.5915 16.9577 11.1422
1 17.7481 10.152 23.4941
1 19.9116 29.653 24.9682
1 9.81928 0.479738 17.0646
1 6.55075 28.6775 21.3034
1 15.8643 11.2614 24.3436
1 9.3137 23.2503 0.311956
1 19.7233 0.552565 9.95063
1 7.87438 6.12491 5.88587
1 23.9842 0.411222 16.2984
1 10.5367 16.7586 15.5917
1 11.3236 9.74401 10.4889
1 8.7481 1.52499 29.1442
1 26.3563 10.7061 20.4815
1 4.52444 15.5651 13.954
1 9.67412 26.2164 1.71915
1 6.04789 28.9241 29.1253
1 25.3962 12.6645 25.8878
1 5.04551 29.0981 16.034
1 4.79031 28.4629 1.92058
1 20.6777 13.0633 8.3155
1 6.04466 15.2519 25.6268
1 8.8559 1.26614 3.01836
1 20.0334 22.2731 12.6425
1 16.0268 16.2126 25.6892
1 19.5036 18.6965 10.6719
1 30.234 3.8612 21.6072
1 19.4474 8.34268 15.7601
1 2.88893 16.9099 17.9719
1 21.2274 29.3355 9.12832
1 1.01816 4.26468 29.4178
1 10.8397 1.42782 13.8476
1 21.5762 2.9968 13.2912
1 20.6808 3.29221 28.2883
1 9.14946 25.2338 9.89418
1 7.08731 23.5922 21.2651
1 6.14966 18.0902 27.0659
1 26.175 28.3091 22.379
1 19.8869 0.685356 3.25681
1 13.9292 17.2885 26.127
1 16.9358 4.91422 15.2011
1 2.87934 23.1658 25.3675
1 19.6449 3.48061 8.42879
1 7.2878 20.1757 2.72499
1 17.1607 15.7171 1.87741
1 26.8383 4.90283 4.19635
1 14.2319 2.66876 24.0807
1 27.7341 14.0654 22.2658
1 20.0674 23.2278 9.89995
1 8.38983 7.6815 4.16703
1 26.5487 0.349045 28.4573
1 1.79041 16.2907 6.94633
1 27.0527 23.6048 1.75489
1 14.5364 23.1914 12.6195
1 23.9571 20.8089 7.63755
1 3.95077 9.09969 6.50014
1 26.5201 3.85094 19.7696
1 10.2846 14.591 2.5518
1 10.08 5.98066 12.6725
1 2.46791 24.1294 16.8172
1 22.4989 3.52913 18.4693
1 14.0192 7.53319 4.21332
1 20.8859 14.6936 12.7885
1 1.72075 22.2641 1.21776
1 3.56861 15.7231 11.0996
1 6.02396 27.3151 24.7531
1 28.4802 28.2685 20.8053
1 14.1994 29.2853 21.0983
1 7.67875 18.0343 6.12142
1 12.8929 15.81 0.199631
1 24.748 30.2412 12.4286
1 18.3819 28.2026 6.63062
1 29.9097 12.8886 22.8632
1 23.4111 11.5606 14.8843
1 8.98449 2.42728 2.37805
1 29.422 26.2545 11.2699
1 6.01854 23.3048 28.9231
1 24.1478 5.74246 10.939
1 30.2482 1.8148 18.1781
1 25.0782 21.4529 7.58689
1 9.20775 3.74018 0.439008
1 18.6392 27.7836 18.8453
1 0.937979 14.1242 26.9417
1 12.7456 4.50185 20.8379
1 24.346 13.3746 5.73018
1 10.1061 10.8622 15.2456
1 11.0886 17.1827 11.2996
1 0.434918 28.5407 11.4974
1 28.9632 14.6878 16.8499
1 12.6238 1.41619 10.5771
1 6.22241 22.8289 16.1389
1 10.2655 3.18316 29.8911
1 4.0403 19.2457 12.3888
1 23.4293 6.99848 27.9405
1 18.6381 13.5886 1.60112
1 22.8083 5.51448 16.664
1 16.4505 11.9617 14.2609
1 25.7712 29.2836 11.3803
1 25.1712 4.79711 1.88077
1 4.29096 25.18 27.8055
1 22.0179 2.68853 27.8989
1 12.352 26.8491 7.05699
1 21.1852 24.7876 6.84609
1 20.9902 26.7684 24.1537
1 4.61248 13.1003 14.5194
1 1.06329 10.5387 6.42592
1 21.2391 8.64939 10.3568
1 17.8 23.7769 12.733
1 2.3101 22.6475 23.1084
1 29.8219 25.1651 22.6107
1 20.0298 6.47856 29.3608
1 19.9719 0.732259 7.75459
1 8.22954 23.3831 11.6041
1 26.4955 2.9378 14.3415
1 8.07753 20.2733 9.88326
1 16.0888 2.3624 1.1586
1 11.2351 27.5492 24.7284
1 3.57813 10.8652 23.1496
1 19.0883 26.1667 3.37912
1 9.33866 25.3144 18.6887
1 4.59218 16.5973 13.0685
1 17.7934 8.23684 27.8398
1 16.4388 2.50361 13.4904
1 27.498 5.17189 17.6107
1 13.1743 3.78113 9.69799
1 20.4809 8.85566 17.7601
1 12.8013 7.06225 18.1877
1 19.2512 15.0597 26.9887
1 8.9967 25.1962 29.2307
1 7.47437 10.1198 29.7796
1 16.3711 17.0548 18.8804
1 23.3431 6.55969 17.2399
1 24.9424 7.12003 16.2749
1 13.7631 21.7751 17.744
1 2.10978 19.1661 10.8102
1 2.42 7.10167 7.01254
1 20.5384 16.8948 17.9306
1 3.86354 15.4954 5.62855
1 9.55763 4.58646 8.741
1 9.18112 8.83375 20.9607
1 10.1142 14.6612 19.634
1 10.0618 6.98143 22.845
1 26.3365 23.781 8.2179
1 5.92643 10.2241 12.9017
1 21.7619 10.6287 1.34812
1 7.09396 20.5295 10.9394
1 13.3215 1.83633 12.926
1 18.3203 1.60726 29.9722
1 20.4367 13.7937 9.59011
1 1.03629 3.97824 0.499326
1 22.5696 13.4078 22.9904
1 14.7508 13.9902 7.72045
1 15.307 23.5853 23.7096
1 0.244211 27.3488 9.21034
1 27.2851 14.7126 10.8509
1 25.5613 18.9322 16.2823
1 6.12837 5.66569 27.8354
1 14.2614 18.2442 0.252832
1 29.2436 26.7116 17.9763
1 26.0169 2.24258 4.59475
1 19.9967 23.7906 4.01686
1 16.6819 6.62823 9.62365
1 2.68236 22.0608 26.5313
1 16.1451 3.0481 17.9866
1 27.8518 21.5399 22.0957
1 1.9174 24.008 29.8389
1 26.1569 19.0072 20.6293
1 2.99091 4.39611 19.0078
1 21.503 5.78623 8.88762
1 13.3396 3.17853 0.247068
1 16.8518 24.207 9.67963
1 12.045 29.7031 16.9236
1 10.5375 1.75095 9.20159
1 11.4566 7.56338 14.4258
1 24.5653 15.9629 22.6902
1 2.57915 22.0789 21.8428
1 25.7716 15.0609 1.40789
1 14.4639 12.1895 2.16392
1 22.3233 17.0512 10.706
1 3.5375 14.3874 20.8304
1 14.4794 30.1097 18.1903
1 11.8106 20.253 21.2444
1 23.2655 17.0392 6.85588
1 26.6479 15.4446 17.3639
1 21.1342 14.9415 6.57872
1 25.8583 3.13606 5.67479
1 11.4258 13.4802 30.1801
1 19.3293 26.4479 26.3206
1 4.57546 27.8484 18.7681
1 9.24899 13.1825 8.0418
1 15.029 16.5495 16.1278
1 0.402735 5.50198 9.46211
1 6.34019 2.53766 20.9796
1 25.3761 25.0186 17.0889
1 8.31726 3.64879 10.9587
1 30.1251 6.18413 19.8097
1 17.0946 10.6799 28.8741
1 1.19706 17.501 7.01978
1 7.00296 26.6218 26.4995
1 17.5573 3.02594 28.2917
1 26.7345 11.4897 7.57458
1 11.3813 23.0641 24.8864
1 20.6543 15.6739 5.13432
1 6.38999 18.4346 6.41445
1 5.00513 14.249 9.35907
1 17.1663 29.4985 8.48769
1 25.1581 26.0618 28.5383
1 20.9469 22.1966 10.0954
1 3.98698 14.4969 29.9438
1 8.29247 9.83466 13.9708
1 18.3504 10.892 4.39596
1 14.8143 11.9864 0.471324
1 9.10597 12.0082 7.11114
1 25.5773 23.6265 19.9362
1 23.8635 1.14331 8.19198
1 3.33097 8.10067 26.3079
1 4.98654 29.0959 10.858
1 29.7919 23.9272 8.9677
1 9.92952 10.0027 4.35322
1 15.9456 0.454579 25.5993
1 24.0849 19.2377 7.59328
1 29.7641 16.2646 21.6181
1 5.1576 8.09758 16.7868
1 16.6923 27.8015 17.6611
1 11.5619 5.35308 25.748
1 8.4131 12.3921 28.6341
1 3.0637 4.65486 3.65335
1 22.6192 28.5745 12.8519
1 4.68837 10.2271 9.32577
1 11.3765 5.71729 9.92958
1 20.3046 6.20958 18.8244
1 29.8962 13.6427 27.4642
1 28.501 19.6135 23.3636
1 7.34893 15.6586 0.557774
1 27.6421 8.33891 4.25176
1 7.83512 0.531519 11.0299
1 4.82347 22.0429 21.5771
1 5.58874 3.41073 22.3373
1 13.2564 15.7443 8.38849
1 27.3765 24.7163 15.1085
1 14.0429 6.5691 22.0537
1 22.3862 26.9793 7.00365
1 24.3241 3.36402 15.6049
1 11.9777 25.8241 29.8668
1 17.1804 1.86333 19.4264
1 2.59367 21.4754 0.266038
1 14.6134 27.9311 7.96009
1 9.72153 16.498 11.118
1 9.01813 13.2573 12.3815
1 19.1338 25.7707 12.2862
1 1.83523 16.751 25.6647
1 16.8037 9.47829 13.7694
1 4.39531 16.8339 27.748
1 4.20609 11.9431 17.3892
1 19.6611 2.71028 27.4207
1 7.5365 23.526 26.9861
1 12.0384 15.7203 9.40161
1 21.4997 23.313 7.0896
1 24.2318 14.7332 15.0558
1 26.3818 11.4686 23.8894
1 23.8879 14.1352 4.44528
1 13.9051 14.8667 20.0846
1 5.12775 17.8028 5.70422
1 24.8776 1.40329 6.20685
1 6.12825 23.4848 24.923
1 27.6366 22.3421 29.0201
1 14.018 21.9997 21.6837
1 18.179 1.48937 12.6203
1 28.474 15.259 10.0072
1 27.796 6.92195 7.93981
1 24.322 3.64029 23.5304
1 22.8602 14.3974 10.77
1 17.2139 7.61307 22.1009
1 12.0056 28.563 27.8927
1 27.8638 6.54178 22.4976
1 8.07837 8.15684 27.7321
1 17.5461 26.3722 15.7948
1 23.8247 14.3289 22.784
1 16.4673 16.2629 10.0241
1 21.93 8.01068 16.0633
1 9.51949 11.8393 19.8678
1 8.18521 26.452 9.08615
1 8.17611 15.1378 15.7359
1 17.1509 18.7112 10.1732
1 5.7591 20.845 13.2886
1 12.2687 24.2549 19.2068
1 8.46086 18.7248 2.94339
1 2.91686 7.87768 13.246
1 22.7072 26.2074 13.4478
1 28.5868 28.8738 18.8883
1 14.2322 4.4299 21.1692
1 29.4016 19.1939 4.72795
1 21.3702 6.84419 26.123
1 3.48557 0.692712 3.03327
1 16.3479 4.58355 12.3117
1 21.3334 7.25495 29.6348
1 23.5773 12.1845 2.98849
1 28.7929 24.7827 1.57714
1 29.8824 7.97428 24.1295
1 19.8091 22.2451 25.2484
1 22.2612 22.2677 10.6319
1 22.9162 8.02845 16.9831
1 1.29952 26.9791 16.8121
1 3.72991 0.401251 14.7817
1 2.99722 19.4369 28.0916
1 10.0656 22.7139 16.7489
1 27.2059 7.99003 11.5125
1 13.8672 10.0086 12.7127
1 13.6307 8.86204 8.47972
1 11.4698 24.5845 29.0739
1 5.39135 20.8813 18.9458
1 15.4978 5.73503 27.5259
1 9.12589 0.7174 4.46608
1 4.9891 0.30246 23.7661
1 28.6792 26.9984 21.5895
1 18.8518 17.8456 14.337
1 10.9152 3.64992 0.686451
1 16.4005 5.50329 10.394
1 0.723212 12.4869 19.6752
1 23.831 25.9458 28.4768
1 19.093 24.5262 12.6376
1 21.6254 0.741824 23.8983
1 13.0108 7.32054 10.9018
1 13.2064 17.1267 24.8799
1 2.58585 2.03567 28.6051
1 18.4601 1.00548 5.35228
1 16.6276 25.5623 23.0695
1 12.7017 23.4093 1.59124
1 3.17095 1.34552 14.1676
1 20.9228 23.5427 0.70106
1 10.1873 4.99818 10.1937
1 25.8521 7.65663 25.5539
1 11.8926 13.7145 10.4776
1 13.4147 4.23169 0.917814
1 15.3399 16.1814 23.3745
1 24.1499 21.0484 28.9582
1 21.3656 10.5787 11.7469
1 7.32558 22.4131 21.8968
1 25.3098 5.84479 16.5956
1 0.961444 7.19102 25.8016
1 26.3236 9.59801 5.88256
1 26.0522 19.933 19.4753
1 17.9466 26.3725 12.0367
1 9.59419 6.58616 18.0084
1 28.934 2.92863 6.82998
1 12.2422 8.87618 29.1794
1 4.82297 12.4366 8.25445
1 19.1389 0.202985 18.0206
1 18.9924 18.7986 15.3529
1 2.44181 10.7453 15.4931
1 23.4438 3.94394 19.4692
1 25.0534 23.719 17.3049
1 7.60407 9.68302 11.1512
1 14.7824 26.3773 2.5147
1 24.0217 22.0618 25.9082
1 1.03336 4.25471 12.1072
1 13.7335 25.0446 28.8033
1 22.8517 14.1164 19.5737
1 1.84095 28.4963 23.1211
1 22.882 10.141 3.77057
1 13.9767 20.9728 20.7813
1 0.615316 12.9685 15.4212
1 4.21502 19.6825 1.3635
1 4.1445 4.78401 28.6269
1 0.528072 28.8819 20.4893
1 26.8148 4.58256 25.7004
1 13.0019 8.20454 14.8578
1 7.38359 16.796 10.8614
1 2.23959 20.8481 4.46931
1 27.6426 11.291 29.6012
1 0.827433 18.7475 25.6327
1 17.224 3.69266 8.97876
1 15.8575 11.598 7.65865
1 21.3886 30.175 17.8173
1 13.3518 5.07446 23.5944
1 11.9006 30.0498 21.4037
1 2.00304 6.61869 28.0185
1 2.00675 7.6341 5.45949
1 10.5327 24.8259 4.20594
1 28.6539 1.59039 3.98684
1 10.0788 23.6105 25.0023
1 2.03876 9.90026 4.49857
1 23.9875 16.6265 10.5791
1 23.2337 29.0448 7.45946
1 16.9518 11.6185 1.99348
1 13.9816 23.2501 21.3545
1 16.646 25.6096 12.6192
1 10.5624 28.9213 0.676261
1 11.5154 17.2903 27.8661
1 18.3273 18.3347 1.45819
1 22.0497 25.5759 1.15454
1 28.5582 9.84199 9.52788
1 12.1338 17.7095 6.42665
1 10.0017 0.673548 25.4999
1 22.1633 12.4365 17.8538
1 10.0747 9.50778 23.8118
1 3.13133 17.7643 23.7079
1 6.06027 2.69225 23.7798
1 5.75135 18.5656 10.2212
1 20.4283 7.8675 16.7499
1 8.13781 15.3795 29.8446
1 10.8245 27.5542 3.00988
1 7.69177 17.4016 2.68409
1 14.6879 20.7452 13.9367
1 25.8243 15.8229 23.2591
1 2.74721 2.64985 10.8735
1 1.43079 19.2286 30.0847
1 17.0746 29.5771 28.7501
1 17.4693 29.3467 20.9529
1 5.99612 7.55634 1.63501
1 14.7873 8.07524 24.7299
1 18.5166 5.63649 8.75288
1 0.698866 16.1665 15.2048
1 7.74344 15.6633 12.0365
1 12.9873 17.9452 29.7994
1 16.9672 8.11479 2.93636
1 25.5985 27.3288 25.8519
1 7.75437 5.87784 28.2715
1 3.09026 3.12173 28.0842
1 6.13609 5.16273 18.3043
1 5.69879 9.31581 20.0989
1 21.3044 7.39891 23.1879
1 16.1059 11.0871 0.726556
1 1.58771 20.6427 9.18622
1 25.2085 3.30545 27.2247
1 22.0461 1.30139 9.37543
1 14.9635 29.0105 13.0364
1 7.52474 0.781028 7.30649
1 5.25306 0.276645 10.9229
1 21.328 21.5792 19.0525
1 11.1948 2.74321 3.41689
1 13.9909 12.7943 21.5916
1 14.1305 13.4821 4.95081
1 17.081 14.934 10.3882
1 3.54694 18.5659 10.7234
1 27.7647 10.1707 14.022
1 25.6524 12.6289 13.9637
1 10.0331 27.2823 11.0893
1 5.00397 11.6608 29.0986
1 23.2313 28.0997 16.4595
1 28.5725 18.5463 2.09237
1 13.828 20.6118 12.6521
1 15.1894 22.6775 17.7774
1 9.47324 13.5038 2.39798
1 12.2093 14.8285 16.7672
1 26.9868 16.2229 14.4491
1 8.41151 7.87299 20.1962
1 19.6374 9.38885 8.61487
1 7.47275 22.138 19.3201
1 27.8313 29.2486 1.18884
1 9.9326 20.0705 1.36613
1 7.47128 16.2609 22.6446
1 15.8964 4.53081 9.45455
1 11.1057 6.81826 28.3021
1 5.72209 11.7035 0.898714
1 20.6601 24.5512 10.1754
1 19.1813 16.0781 11.0488
1 12.3946 28.2753 29.5269
1 19.3498 14.2654 23.0351
1 15.0766 12.2452 22.3435
1 24.4261 22.2939 22.796
1 21.7376 3.95066 24.1065
1 26.1538 20.8589 7.6862
1 12.9575 14.9109 6.09296
1 28.7884 10.5046 8.20385
1 6.84057 25.797 7.30051
1 3.72228 15.8862 30.0305
1 25.6477 6.05035 20.9482
1 4.08059 16.7825 3.10775
1 22.1496 9.37725 15.3114
1 17.4986 16.1242 29.7223
1 26.2464 2.31204 24.9949
1 19.9315 6.67244 26.6517
1 19.9452 15.0432 0.171096
1 13.5444 24.7342 19.2317
1 30.0767 28.2811 24.0829
1 29.1044 30.0403 13.5934
1 0.461504 5.24294 18.9731
1 7.67125 25.0471 4.45324
1 12.2182 9.10692 22.0607
1 25.5603 9.28451 15.4257
1 5.91551 26.718 7.75058
1 14.1753 18.3318 11.483
1 9.14157 26.1383 17.2953
1 11.0119 2.93097 25.5545
1 3.58545 17.7629 8.16998
1 23.4215 5.36189 3.41856
1 17.0275 26.044 25.4807
1 18.8784 15.7799 2.79398
1 15.2691 27.8043 26.9147
1 12.6784 1.80405 27.5243
1 13.7462 26.5948 10.7717
1 4.3594 5.31068 26.3172
1 17.5233 23.3034 24.5443
1 9.17703 15.4605 12.1897
1 24.8329 23.1246 25.8228
1 25.169 25.9289 25.4186
1 24.0747 8.28797 28.649
1 27.0194 25.1528 25.7417
1 3.74572 12.035 23.993
1 1.01995 9.55785 11.9508
1 25.6526 5.97507 29.886
1 27.5547 23.7414 22.9125
1 11.2245 30.0237 3.8211
1 16.8898 11.6983 8.79793
1 18.9173 20.8947 10.0321
1 16.7795 23.739 19.8549
1 22.0699 4.7461 12.1667
1 12.7473 16.8583 19.4294
1 18.1759 14.9857 15.7496
1 23.4941 24.7698 4.04269
1 13.0214 25.5713 25.9474
1 26.7576 21.6298 25.8402
1 26.2142 24.6727 11.2648
1 14.213 27.0869 30.2391
1 3.18567 2.09306 5.02905
1 0.421372 15.5074 26.6848
1 20.4459 5.04502 1.70115
1 27.7302 24.0744 20.1743
1 3.92452 22.1586 6.37105
1 26.9856 16.785 23.2875
1 4.85182 26.8626 11.9322
1 9.98504 16.0491 0.596025
1 6.7707 16.3602 28.0885
1 8.87893 7.63072 17.0292
1 2.40172 28.3645 1.20371
1 29.0974 1.20387 28.6612
1 20.5044 9.66396 4.73987
1 0.670406 28.4087 9.98132
1 12.976 24.5521 9.39553
1 30.0884 18.6908 17.6561
1 27.3298 15.6917 26.0105
1 6.89733 7.62287 7.57926
1 10.3632 20.5534 10.3317
1 24.3502 1.99291 17.8048
1 9.39201 26.5389 30.1011
1 26.3746 29.3394 16.7797
1 23.3717 11.2113 21.3762
1 5.74746 12.1583 25.5066
1 10.7582 12.9424 15.7158
1 4.29403 9.03428 3.07696
1 0.372056 26.1063 14.7656
1 21.7991 1.67804 26.6766
1 6.51917 29.1185 0.2376
1 10.8196 16.0759 28.9644
1 5.56426 0.408157 3.88743
1 3.278 20.6065 12.7099
1 22.6515 19.6735 10.4725
1 0.646084 17.2308 23.4526
1 29.2825 0.753632 17.9835
1 6.90503 3.09242 0.9378
1 4.94642 22.96 5.99818
1 18.5002 24.9087 21.6617
1 5.35919 24.8852 27.0403
1 25.693 0.441597 26.3116
1 6.32044 6.29994 26.485
1 11.615 9.50251 13.0291
1 21.3094 2.53142 18.5512
1 5.43691 3.28413 5.9638
1 17.7587 2.44303 3.56821
1 14.0871 21.4796 23.1484
1 3.29348 25.4067 14.8754
1 0.197379 7.16636 0.191452
1 22.5982 0.282686 11.6596
1 25.3671 9.04286 25.5998
1 20.1018 21.5302 19.2166
1 10.956 4.0247 26.8765
1 24.3859 13.4036 3.35267
1 25.2312 25.1849 1.06633
1 24.3388 14.7059 21.4854
1 9.37219 22.7934 17.972
1 18.529 27.3002 4.0766
1 9.03017 6.35189 8.06048
1 11.0532 15.5886 23.8154
1 19.6357 0.311934 21.2422
1 11.6032 17.9818 12.2922
1 22.8041 13.1918 25.424
1 15.6 19.3912 16.0007
1 6.6739 20.131 14.5922
1 27.7026 30.3341 13.2203
1 8.60878 10.2377 28.2545
1 15.6223 29.9296 24.4536
1 16.1755 5.68844 17.3891
1 22.399 3.59387 4.15351
1 12.6229 22.2457 8.46837
1 14.4508 10.1715 17.3507
1 0.681416 24.4464 1.9694
1 16.7412 4.75044 1.32835
1 24.2127 28.0715 14.2598
1 14.2727 21.6987 2.80943
1 16.1403 21.9314 17.1051
1 25.6108 2.44831 6.73899
1 21.2929 30.4139 25.3159
1 9.04517 9.87139 1.76264
1 3.01347 8.68418 5.23533
1 26.7186 7.49442 30.0531
1 9.40199 14.8568 7.13238
1 3.53128 25.5803 19.1836
1 24.8721 12.954 0.607118
1 19.2888 22.7923 19.1666
1 22.3385 5.743 15.5067
1 21.0324 5.74955 5.58811
1 28.2421 19.287 24.9148
1 18.1772 15.8794 21.2924
1 28.0814 9.08 26.7839
1 14.029 24.3545 13.7986
1 20.6494 0.947412 26.5292
1 25.09 27.2914 15.0474
1 17.5745 1.94836 2.22771
1 14.5046 11.6105 9.76698
1 4.38551 19.1716 9.64363
1 22.107 24.7064 10.4521
1 12.1787 10.8892 10.1737
1 12.9231 6.05091 25.7092
1 15.5672 26.1916 28.795
1 18.7595 25.7589 9.47412
1 10.4254 8.39355 16.2465
1 2.56989 14.7978 9.06846
1 1.7371 28.0575 27.1993
1 20.0712 25.8805 9.92058
1 26.6031 23.5772 15.0939
1 11.9819 17.2951 3.39335
1 12.1937 19.8199 2.66277
1 11.1734 11.8072 1.75941
1 7.99348 6.72428 23.1784
1 17.9706 22.0897 9.83558
1 1.22182 3.99372 22.0003
1 3.27186 3.76893 15.776
1 22.6215 0.693875 0.222856
1 14.7855 16.1781 3.33234
1 5.86353 14.9444 20.6249
1 6.90551 4.45352 9.40048
1 4.80793 20.4054 10.0459
1 16.1361 8.24563 5.22315
1 23.2446 14.8976 20.666
1 0.976284 9.92754 22.1199
1 20.9238 8.55178 24.0939
1 8.02777 7.45647 24.7376
1 29.8087 21.2562 10.8046
1 2.76442 22.8427 5.9631
1 14.9799 12.2959 23.8262
1 27.2022 10.746 15.5002
1 17.108 3.97964 26.0837
1 27.9407 21.7893 8.5539
1 13.9479 23.7421 29.3178
1 25.3507 28.656 0.942701
1 14.8853 14.538 1.32524
1 24.5377 6.43328 27.3428
1 9.38908 6.99939 9.11745
1 13.9895 19.8579 11.4824
1 3.17559 25.0353 22.7578
1 23.8845 12.7466 8.51604
1 10.6901 27.8992 17.7572
1 8.05911 25.9129 26.9759
1 30.2105 30.1073 22.4834
1 16.9606 15.0087 16.3499
1 7.5609 4.81781 17.7541
1 5.32755 17.3284 23.4008
1 0.357432 7.86687 5.45819
1 23.8917 7.69401 19.5007
1 1.77751 18.8948 6.99588
1 9.6911 10.3892 20.5676
1 8.50082 1.17156 19.3953
1 9.36147 25.9292 11.3304
1 16.6635 21.6188 0.525397
1 8.48838 12.1586 5.6433
1 26.3727 29.1184 20.0432
1 15.3224 1.2092 3.53427
1 15.6346 28.8097 15.9075
1 25.3025 26.1298 22.4923
1 21.6814 20.114 1.65447
1 3.19721 12.0077 5.38117
1 17.6966 2.14636 7.14241
1 12.8146 5.39209 4.28729
1 3.50126 27.2399 16.187
1 22.9939 9.22002 28.5396
1 5.3551 11.8161 11.0845
1 17.899 4.99381 1.93604
1 27.3639 6.39247 14.6729
1 16.5864 16.5444 17.7012
1 8.61098 6.2076 10.6454
1 14.9889 28.8493 4.24986
1 21.4631 3.28482 21.096
1 18.8018 1.64025 8.38489
1 18.6685 8.16214 8.88435
1 18.5014 1.97668 16.8102
1 13.4395 14.8442 25.9062
1 20.3063 10.708 24.7567
1 19.0484 10.2277 10.9981
1 1.95872 11.059 7.26424
1 11.7811 16.1375 27.3566
1 5.78483 20.7248 7.35098
1 11.2313 8.01397 8.18197
1 3.19079 10.1088 20.8346
1 0.207145 6.29999 29.0509
1 16.3356 9.60521 23.4277
1 9.8568 10.7247 23.2724
1 3.95204 11.1775 13.2562
1 3.92992 5.0223 23.2037
1 5.79151 13.1903 1.20498
1 27.7447 15.8253 3.73039
1 10.819 14.8031 7.47262
1 10.1124 8.04823 21.9237
1 25.3281 11.3313 28.5595
1 5.30071 5.97787 10.2361
1 16.2585 19.5417 10.8839
1 23.1814 9.94814 6.85658
1 7.96127 14.8148 14.1116
1 30.3114 3.53737 6.25885
1 1.31346 8.22192 9.47353
1 29.6235 12.3595 19.1308
1 12.9992 2.26571 21.5442
1 26.887 13.7915 23.2687
1 27.8819 2.5128 6.39407
1 18.784 17.4025 10.9782
1 24.9731 18.5925 1.68333
1 23.2582 24.3124 22.8092
1 29.9017 1.37239 26.1553
1 2.06476 9.15285 22.4481
1 17.3781 10.8882 18.0371
1 15.7686 6.6848 8.55717
1 29.9221 5.78246 10.7335
1 13.1385 14.3842 28.5778
1 9.33106 12.1073 18.5191
1 15.0073 12.4191 12.0317
1 13.2539 6.2804 19.3244
1 14.9869 24.8148 6.11284
1 26.58 27.1373 17.6484
1 29.5464 8.27193 0.72923
1 19.7883 9.52306 14.8929
1 11.8265 7.83 24.7466
1 28.1544 27.1961 16.9586
1 29.5576 17.5056 4.20621
1 18.06 11.5026 24.0584
1 11.6763 10.7116 21.747
1 22.8382 21.4147 7.60928
1 13.2044 28.7753 9.484
1 27.9662 20.0559 27.9984
1 7.81089 29.4492 12.194
1 5.70171 14.8257 26.8807
1 19.4433 29.4889 29.5821
1 4.82272 5.51654 5.64652
1 25.8123 12.6266 17.8046
1 14.4357 26.0458 29.4533
1 2.8139 27.4185 0.393603
1 4.18092 1.03125 1.80229
1 29.6937 29.1654 26.0524
1 4.81979 10.0552 28.4956
1 18.907 11.974 27.7267
1 5.78448 9.73926 14.3181
1 5.49105 28.77 9.35645
1 15.4415 24.9295 26.7972
1 3.96301 24.9486 10.7481
1 26.4363 6.18204 19.8477
1 15.9233 8.70703 12.4073
1 29.6169 6.3028 21.086
1 1.03423 3.53277 7.64351
1 8.10685 1.38675 24.7785
1 23.0854 10.9342 7.70566
1 23.6577 2.63893 16.7587
1 7.33345 27.1894 3.25212
1 18.931 27.9289 1.8035
1 23.4339 4.29897 29.5368
1 24.0341 17.3516 22.7432
1 16.2513 25.8704 16.2439
1 17.9579 12.5258 21.836
1 23.5228 19.0729 18.9875
1 15.5392 17.443 5.59943
1 24.432 11.6131 7.67402
1 5.95665 20.2668 3.59966
1 13.6118 14.7719 7.59858
1 12.9289 11.1857 25.1679
1 25.1261 18.1789 22.6124
1 14.6269 17.6636 3.20564
1 1.5473 9.14943 27.5396
1 1.06021 0.72119 0.868362
1 25.102 10.3394 27.5884
1 0.371145 17.0337 1.99375
1 2.20093 3.25664 21.2775
1 30.1822 8.01739 7.83392
1 7.72505 26.4843 4.59282
1 30.1175 12.2563 26.3898
1 23.3108 5.78094 30.0526
1 5.1776 2.20882 1.7793
1 27.2667 2.2182 27.3473
1 5.43072 29.3775 5.92189
1 25.6208 26.1875 14.5475
1 9.82919 15.3247 10.0575
1 3.97943 5.82166 3.24126
1 22.211 24.0813 3.8976
1 15.5975 9.60246 21.9766
1 5.05363 6.67058 30.1687
1 18.4241 14.2497 23.9203
1 16.4331 22.9139 6.72978
1 10.2688 22.779 14.1322
1 22.6952 14.6921 16.4304
1 20.1542 18.3675 28.6292
1 15.002 17.1534 0.848221
1 3.46601 3.54621 2.99484
1 6.33153 5.16117 23.3753
1 4.0844 22.4213 14.1795
1 10.4335 13.022 23.5492
1 9.38412 6.58075 14.994
1 11.3321 10.5311 1.20613
1 25.237 6.44327 26.1689
1 1.8781 3.79957 10.6588
1 6.53211 4.48271 0.812431
1 6.2039 7.80574 11.9147
1 15.2882 20.5841 7.10128
1 11.7583 20.2382 15.2576
1 15.6283 10.2131 14.5809
1 19.6255 16.3951 5.67341
1 4.30908 3.88009 19.385
1 11.8718 29.6432 1.49615
1 27.6498 5.16146 22.9775
1 7.34309 26.0789 22.0904
1 12.0468 20.4772 16.4871
1 17.1491 7.27317 18.565
1 22.9055 13.6669 13.1046
1 17.2377 13.6185 18.2974
1 23.9367 9.27077 2.96397
1 5.00596 10.1225 26.7071
1 25.4025 23.5515 28.9581
1 9.0858 29.8544 17.6105
1 2.58903 13.766 17.0925
1 23.1115 28.6579 22.8945
1 29.8938 26.4223 3.15612
1 20.0564 14.8418 28.12
1 0.981329 21.5359 13.2696
1 10.2148 9.17509 8.34572
1 2.19768 13.8833 22.6368
1 20.7057 0.351337 8.91065
1 30.116 26.7613 29.4817
1 29.5977 23.6363 12.5097
1 10.6269 13.8542 14.6187
1 9.48596 18.4544 29.8981
1 26.2543 24.6374 20.1276
1 14.3652 16.1456 8.84907
1 1.75295 13.7548 25.7603
1 28.3326 29.5069 25.262
1 17.139 13.4519 12.5779
1 28.6377 23.3363 9.12816
1 7.02574 10.1269 9.78478
1 22.8642 25.8362 10.4572
1 2.18322 3.77563 16.7075
1 6.59596 20.0172 6.68321
1 14.0332 15.8063 26.7649
1 1.36197 24.3735 17.8423
1 23.6044 24.9477 19.9528
1 24.5805 14.0138 24.1183
1 15.9715 9.95915 16.101
1 13.9655 8.21154 9.82201
1 30.3663 30.2785 21.0846
1 1.16224 12.075 10.6078
1 11.2625 28.0637 30.3102
1 17.4787 28.88 27.4384
1 19.6957 19.6594 25.0948
1 23.5501 17.7561 29.4116
1 27.8614 7.26788 10.2855
1 27.2281 13.348 10.4606
1 10.4926 18.0663 27.3149
1 22.8712 1.89464 25.5389
1 3.70358 9.93137 29.2587
1 1.68465 23.5761 24.9025
1 12.5778 18.6573 22.9757
1 25.9475 12.7575 21.495
1 22.9922 6.61153 21.7938
1 30.3696 14.5411 29.7988
1 16.7273 7.62306 15.5148
1 5.47377 9.8167 21.5535
1 8.64284 10.2368 3.8115
1 3.86388 11.8977 18.8651
1 20.4008 13.3652 12.2289
1 21.6713 26.3069 16.7134
1 23.3327 12.5525 27.8627
1 29.2871 3.63565 1.87036
1 4.98294 24.2399 19.9599
1 15.9178 26.993 2.05541
1 22.0479 22.1893 28.845
1 4.36341 24.5812 0.486677
1 17.3425 25.8075 21.3906
1 21.9355 20.4126 19.4613
1 13.6781 15.356 3.81085
1 7.23002 1.93736 9.61017
1 29.808 27.6584 26.5138
1 25.7218 21.6423 14.0135
1 27.2138 28.7438 24.5841
1 29.4792 23.5051 11.0616
1 9.09926 5.31394 14.6681
1 19.2007 21.9904 28.2455
1 17.1237 18.8475 7.81163
1 12.9172 19.8043 13.5614
1 20.7406 13.9822 19.2912
1 14.1034 29.7924 5.08309
1 13.2515 0.952099 21.4702
1 16.3203 17.3248 16.4745
1 10.5713 27.7371 23.5567
1 14.7266 8.91865 1.82712
1 0.368901 21.5737 26.0653
1 5.98562 6.80684 4.19271
1 0.429356 4.60957 7.1253
1 9.37211 15.2291 4.94105
1 8.41639 19.8451 29.6694
1 24.9502 2.55167 22.9152
1 27.0489 9.00535 17.7032
1 20.3903 19.458 1.85315
1 3.67261 2.95144 14.4325
1 9.04195 9.0412 13.2804
1 19.0043 30.0242 23.9225
1 6.69759 25.1541 22.9178
1 28.9265 19.7996 1.77089
1 11.7011 14.73 6.06215
1 0.572744 23.5568 21.1428
1 0.745855 5.26983 25.0839
1 8.68428 14.6209 19.9174
1 23.8667 20.7042 13.1913
1 0.337806 25.6975 10.7837
1 0.141062 1.83154 10.9777
1 30.2065 25.3826 23.9016
1 9.88218 30.4091 7.71387
1 12.7573 20.5399 20.06
1 26.0632 16.2504 26.9808
1 14.2028 11.8335 18.1487
1 23.6476 20.1058 22.8914
1 12.5317 0.875396 29.4851
1 8.56135 18.4238 7.21186
1 23.6045 7.9616 9.43293
1 11.315 4.70801 16.213
1 2.87221 30.0693 27.4629
1 7.38931 12.8506 10.9793
1 28.0661 4.97222 9.14268
1 13.145 3.94931 2.3525
1 2.8789 9.46165 23.5893
1 10.5519 16.0957 17.8415
1 15.7079 5.10093 22.6136
1 19.0163 19.3793 22.1733
1 19.7263 28.0745 29.4345
1 26.8781 14.5492 25.2655
1 23.6022 22.0361 13.5794
1 7.3782 14.4987 25.5556
1 28.4616 27.4405 12.5776
1 5.1483 16.6719 29.953
1 8.04204 10.6496 7.45442
1 9.23983 8.73451 24.6327
1 19.9469 9.49084 24.458
1 26.0628 1.66367 19.6335
1 3.481 15.136 16.4831
1 17.4716 5.16544 11.3664
1 19.6782 29.2204 26.6615
1 8.06755 4.17604 20.1293
1 0.998343 25.0382 4.95345
1 18.4107 9.90168 21.9189
1 21.2995 6.74498 19.7982
1 16.1764 0.452844 6.10898
1 8.13006 28.3355 2.83963
1 2.6021 12.1302 29.3566
1 28.4258 1.78654 20.8458
1 14.9803 6.88018 28.0906
1 5.14941 12.2596 4.34626
1 26.5736 14.4048 18.5209
1 10.422 25.9519 14.637
1 14.6726 5.18296 17.7052
1 7.57547 27.9421 14.8762
1 17.2519 22.822 0.637842
1 20.2169 22.6381 7.00906
1 7.0317 11.4512 12.6917
1 0.266185 15.1817 5.48372
1 19.1218 17.2217 3.05902
1 24.8019 11.907 6.27341
1 0.738518 3.06697 5.14941
1 22.4539 8.75195 9.19385
1 21.1882 4.69338 21.6925
1 25.8211 27.3104 1.23243
1 3.24408 30.0853 20.244
1 2.69316 28.0411 4.36258
1 10.102 19.5988 19.5545
1 9.11641 13.1094 4.8955
1 0.820178 30.0143 10.1085
1 4.92806 25.421 11.6056
1 8.54661 4.67105 30.0075
1 12.3236 6.42229 5.04418
1 1.03425 17.8336 28.2605
1 11.3234 5.89096 2.43687
1 9.12382 16.3472 2.81405
1 28.4446 2.08297 14.1953
1 8.13839 29.2534 23.1417
1 3.72949 19.8318 2.80472
1 16.9193 20.9719 17.9438
1 20.3231 28.1133 12.3024
1 14.2301 7.62338 15.3567
1 26.3448 29.4667 1.21291
1 26.693 4.11539 16.7965
1 14.3757 20.3357 17.5164
1 16.1189 25.2576 8.90043
1 27.5537 23.158 8.48455
1 21.7948 28.7127 30.1863
1 8.18729 18.6207 8.57764
1 24.5496 23.6093 22.5533
1 2.70276 28.2196 12.309
1 22.9042 23.4714 10.8323
1 7.16744 13.0994 3.37387
1 7.76159 6.35606 13.117
1 3.15266 22.6123 28.0143
1 4.82415 21.1 24.7337
1 12.2947 8.32552 20.8391
1 22.0972 4.24993 25.4726
1 16.3124 29.2822 6.09917
1 3.05114 3.60406 24.6016
1 2.9188 0.898953 7.34105
1 14.2972 1.67988 16.9331
1 4.03234 21.2955 26.1352
1 18.5188 23.6177 21.7251
1 15.4221 3.23187 6.92123
1 0.202424 17.7284 19.6728
1 13.2235 2.13385 7.73724
1 4.20993 5.8617 27.7372
1 11.5491 10.8953 13.1969
1 22.7715 25.6915 22.7224
1 27.5071 27.0296 5.46511
1 26.8268 17.4164 9.95079
1 21.5781 6.97256 15.1587
1 9.60899 20.0445 16.3233
1 1.87816 28.1245 21.1092
1 5.68319 17.6441 0.579552
1 30.2022 18.9762 19.2677
1 0.699418 30.1565 11.8462
1 9.97201 10.2545 10.3552
1 4.57658 18.1328 17.1298
1 15.7865 19.7915 3.27727
1 21.4743 25.9579 22.9851
1 22.5371 6.34936 28.9688
1 15.3843 4.34425 29.8745
1 7.42635 22.5131 12.6888
1 15.4613 8.04328 27.5312
1 24.6152 0.147734 21.7038
1 8.83714 21.6036 28.0247
1 22.9951 25.7097 16.8699
1 28.0527 21.0306 1.64956
1 20.7502 4.81968 28.0072
1 24.6241 26.2162 1.12755
1 26.3256 12.1413 6.42597
1 22.2613 15.6219 21.3397
1 15.8319 4.52595 25.1558
1 18.0523 29.7557 29.831
1 5.39849 4.66213 1.87266
1 2.62438 6.64969 24.3454
1 1.30542 6.78747 2.54371
1 27.2384 4.29952 12.2954
1 5.78415 10.5457 6.97186
1 0.798794 1.22654 13.5777
1 13.8021 0.80614 14.1069
1 3.86048 16.6572 21.5116
1 18.6508 29.4281 21.6841
1 0.640154 9.88492 24.5017
1 13.6888 7.22495 28.0082
1 10.5756 26.1574 27.2915
1 10.0133 11.8634 10.4677
1 14.8834 2.18109 22.7821
1 0.410656 22.1744 4.65737
1 8.759 23.3303 24.2252
1 0.205404 5.59022 5.75131
1 19.7537 8.75031 6.14898
1 2.01919 18.5937 3.77904
1 27.5177 23.2316 17.5134
1 16.8995 6.76245 19.8503
1 10.3542 5.4251 26.5498
1 20.7496 28.7027 21.918
1 5.49122 30.3659 26.0558
1 10.1966 3.53136 4.09972
1 8.10447 0.326056 2.29839
1 6.61697 15.7435 5.34655
1 3.90773 28.6428 16.7289
1 7.86798 2.96527 21.251
1 25.5461 10.0204 4.66426
1 2.94375 19.9684 30.336
1 24.5082 2.4986 12.2775
1 13.4823 11.8212 23.9824
1 26.6217 24.4405 23.5515
1 4.54314 17.6192 20.8837
1 9.75358 19.8504 30.1832
1 3.57163 13.6044 0.579227
1 0.530544 8.98569 14.8274
1 4.09571 8.30941 4.24014
1 1.88346 0.977359 8.3195
1 5.89391 22.7683 9.86152
1 28.5201 13.4149 17.6391
1 22.8984 8.38942 25.3956
1 21.5326 27.8672 26.268
1 27.3954 24.5412 4.51756
1 17.8856 19.7146 4.51712
1 9.36912 25.1045 22.6623
1 28.5064 16.9934 23.5352
1 17.3543 12.9086 20.507
1 1.50643 10.6369 0.978135
1 7.77478 8.56315 19.1524
1 12.6054 24.8234 28.015
1 28.2604 14.0285 14.7043
1 19.1891 20.2098 12.3987
1 26.3347 12.0599 20.4276
1 8.95379 17.7344 0.749249
1 14.2928 27.6881 17.8609
1 11.7329 8.75284 19.5275
1 11.4096 1.39257 18.5915
1 5.73014 23.0261 4.80826
1 17.0572 15.8518 22.1899
1 15.6191 3.26869 14.5511
1 3.06792 30.3603 10.3415
1 28.0841 22.2263 4.60061
1 0.864709 0.197212 27.9501
1 27.4769 5.00432 14.8511
1 12.7139 21.8327 16.5551
1 15.1585 4.95609 20.178
1 6.75254 11.3787 7.01852
1 13.5044 2.98188 16.1317
1 11.3235 22.755 22.7478
1 18.2284 11.5118 8.89898
1 13.7172 9.6255 27.449
1 1.99181 23.2403 20.9687
1 8.51516 2.57048 25.1413