LAMMPS (24 Jul 2017)
units metal
dimension 3
boundary p p p
atom_style atomic
read_data LiquidC.data
  orthogonal box = (0 0 0) to (30.5475 30.5475 30.5475)
  1 by 2 by 2 MPI processor grid
  reading atoms ...
  4096 atoms

pair_style nep C_2022_NEP3.txt
pair_coeff * *

mass            1 12.0100
run_style verlet
timestep 0.002

compute iceId all diamondlambda/atom degree 3 nnn 3 cutoff 1.8 cutoff_big 3.5 nucleiBiggest self lessThan -0.85
compute lambda all biggest c_iceId  groupBig biggest


fix noseHoover all npt temp 3700 3700 1 iso 150000 150000 100 tchain 5 pchain 5 mtk yes

velocity all create 3700 314994941 dist gaussian
run 0 pre yes post no
Neighbor list info ...
  update every 1 steps, delay 10 steps, check yes
  max neighbors/atom: 2000, page size: 100000
  master list distance cutoff = 6.2
  ghost atom cutoff = 6.2
  binsize = 3.1, bins = 10 10 10
  2 neighbor lists, perpetual/occasional/extra = 1 1 0
  (1) pair nep, perpetual
      attributes: full, newton on
      pair build: full/bin/atomonly
      stencil: full/bin/3d
      bin: standard
  (2) compute diamondlambda/atom, occasional, copy from (1)
      attributes: full, newton on
      pair build: copy
      stencil: none
      bin: none
Per MPI rank memory allocation (min/avg/max) = 3.46 | 3.46 | 3.461 Mbytes
Step Temp E_pair E_mol TotEng Press Volume 
       0         3700    -6327.688            0   -4369.2029    157204.41    28505.392 
Loop time of 1.6762e-05 on 4 procs for 0 steps with 4096 atomsrrrun 0 pre no post yes
Step Temp E_pair E_mol TotEng Press Volume 
       0         3700    -6327.688            0   -4369.2029    157204.41    28505.392 
Loop time of 1.38793e-05 on 4 procs for 0 steps with 4096 atoms

64.8% CPU use with 4 MPI tasks x no OpenMP threads

MPI task timing breakdown:
Section |  min time  |  avg time  |  max time  |%varavg| %total
---------------------------------------------------------------
Pair    | 0          | 0          | 0          |   0.0 |  0.00
Neigh   | 0          | 0          | 0          |   0.0 |  0.00
Comm    | 0          | 0          | 0          |   0.0 |  0.00
Output  | 0          | 0          | 0          |   0.0 |  0.00
Modify  | 0          | 0          | 0          |   0.0 |  0.00
Other   |            | 1.388e-05  |            |       |100.00

Nlocal:    1024 ave 1035 max 1015 min
Histogram: 1 0 1 0 0 0 1 0 0 1
Nghost:    3713.5 ave 3724 max 3690 min
Histogram: 1 0 0 0 0 0 0 1 0 2
Neighs:    0 ave 0 max 0 min
Histogram: 4 0 0 0 0 0 0 0 0 0
FullNghs:  146020 ave 148544 max 143240 min
Histogram: 1 0 0 0 1 0 1 0 0 1

Total # of neighbors = 584080
Ave neighs/atom = 142.598
Neighbor list builds = 0
Dangerous builds = 0
Total wall time: 4:18:39
 atomrurrun 20 pre no post no
Step Temp E_pair E_mol TotEng Press Volume 
      80    4471.6773   -6754.1453            0   -4387.1958    172777.97    28505.412 
     100    4485.9055   -6769.9217            0   -4395.4409    170459.27    28505.425 
Loop time of 1.7293 on 4 procs for 20 steps with 4096 atomsrrrun 20 pre no post no
Step Temp E_pair E_mol TotEng Press Volume 
     100    4485.9055   -6769.9217            0   -4395.4409    170459.27    28505.425 
     120    4430.5182   -6746.3364            0   -4401.1732     149648.7    28505.442 
Loop time of 1.71575 on 4 procs for 20 steps with 4096 atomsrrrun 20 pre no post no
Step Temp E_pair E_mol TotEng Press Volume 
     120    4430.5182   -6746.3364            0   -4401.1732     149648.7    28505.442 
     140    4524.1465   -6807.0417            0   -4412.3191    162543.72    28505.461 
Loop time of 1.71506 on 4 procs for 20 steps with 4096 atomsrurun 20 pre no post no
Step Temp E_pair E_mol TotEng Press Volume 
     140    4524.1465   -6807.0417            0   -4412.3191    162543.72    28505.461 
     160    4409.8147   -6753.3242            0   -4419.1198     178408.1    28505.482 
Loop time of 1.705 on 4 procs for 20 steps with 4096 atoms

run 20 pre no post no
Step Temp E_pair E_mol TotEng Press Volume 
     160    4409.8147   -6753.3242            0   -4419.1198     178408.1    28505.482 
     180    4429.4143   -6773.0771            0   -4428.4982    170830.79    28505.508 
Loop time of 1.71297 on 4 procs for 20 steps with 4096 atoms
rrun 20 pre no post no
Step Temp E_pair E_mol TotEng Press Volume 
     180    4429.4143   -6773.0771            0   -4428.4982    170830.79    28505.508 
     200    4469.1365   -6804.6514            0   -4439.0468    159084.13    28505.537 
Loop time of 1.71715 on 4 procs for 20 steps with 4096 atomsrurun 20 pre no post no
Step Temp E_pair E_mol TotEng Press Volume 
     200    4469.1365   -6804.6514            0   -4439.0468    159084.13    28505.537 
     220    4430.5209   -6795.2001            0   -4450.0355    170072.56    28505.568 
Loop time of 1.71267 on 4 procs for 20 steps with 4096 atomsrurun 20 pre no post no
Step Temp E_pair E_mol TotEng Press Volume 
     220    4430.5209   -6795.2001            0   -4450.0355    170072.56    28505.568 
     240    4427.3202   -6798.9398            0   -4455.4694    170325.27    28505.603 
Loop time of 1.7225 on 4 procs for 20 steps with 4096 atomsrurun 20 pre no post no
Step Temp E_pair E_mol TotEng Press Volume 
     240    4427.3202   -6798.9398            0   -4455.4694    170325.27    28505.603 
     260    4418.6371   -6803.3191            0   -4464.4448    165487.33     28505.64 
Loop time of 1.74842 on 4 procs for 20 steps with 4096 atomsrrrun 20 pre no post no
Step Temp E_pair E_mol TotEng Press Volume 
     260    4418.6371   -6803.3191            0   -4464.4448    165487.33     28505.64 
     280    4455.6272   -6831.3908            0   -4472.9369    183077.55    28505.681 
Loop time of 1.71519 on 4 procs for 20 steps with 4096 atomsrrrun 20 pre no post no
Step Temp E_pair E_mol TotEng Press Volume 
     280    4455.6272   -6831.3908            0   -4472.9369    183077.55    28505.681 
     300    4459.0277   -6843.1485            0   -4482.8946    161585.25    28505.727 
Loop time of 1.71512 on 4 procs for 20 steps with 4096 atomsrrrun 20 pre no post no
Step Temp E_pair E_mol TotEng Press Volume 
     300    4459.0277   -6843.1485            0   -4482.8946    161585.25    28505.727 
     320    4470.2197   -6854.1165            0   -4487.9385    158707.42    28505.777 
Loop time of 1.69009 on 4 procs for 20 steps with 4096 atomsrrrun 20 pre no post no
Step Temp E_pair E_mol TotEng Press Volume 
     320    4470.2197   -6854.1165            0   -4487.9385    158707.42    28505.777 
     340    4401.1723   -6826.1315            0   -4496.5017    173516.83     28505.83 
Loop time of 1.68783 on 4 procs for 20 steps with 4096 atomsrrrun 20 pre no post no
Step Temp E_pair E_mol TotEng Press Volume 
     340    4401.1723   -6826.1315            0   -4496.5017    173516.83     28505.83 
     360    4478.4448   -6874.2679            0   -4503.7362    182493.78    28505.888 
Loop time of 1.70488 on 4 procs for 20 steps with 4096 atomsrurun 20 pre no post no
Step Temp E_pair E_mol TotEng Press Volume 
     360    4478.4448   -6874.2679            0   -4503.7362    182493.78    28505.888 
     380    4383.8495   -6832.5097            0   -4512.0492    174021.96     28505.95 
Loop time of 1.70888 on 4 procs for 20 steps with 4096 atomrrurun 20 pre no post no
Step Temp E_pair E_mol TotEng Press Volume 
     380    4383.8495   -6832.5097            0   -4512.0492    174021.96     28505.95 
     400    4388.7524   -6843.5639            0   -4520.5081    165648.84    28506.017 
Loop time of 1.70613 on 4 procs for 20 steps with 4096 atomrrurun 20 pre no post no
Step Temp E_pair E_mol TotEng Press Volume 
     400    4388.7524   -6843.5639            0   -4520.5081    165648.84    28506.017 
     420    4372.2776   -6842.3617            0   -4528.0264    153637.51    28506.086 
Loop time of 1.70808 on 4 procs for 20 steps with 4096 atomrrurun 20 pre no post no
Step Temp E_pair E_mol TotEng Press Volume 
     420    4372.2776   -6842.3617            0   -4528.0264    153637.51    28506.086 
     440    4393.0812    -6862.201            0    -4536.854    160264.29    28506.157 
Loop time of 1.69369 on 4 procs for 20 steps with 4096 atomrrrrun 20 pre no post no
Step Temp E_pair E_mol TotEng Press Volume 
     440    4393.0812    -6862.201            0    -4536.854    160264.29    28506.157 
     460     4444.086   -6897.1908            0   -4544.8459    173046.99     28506.23 
Loop time of 1.70279 on 4 procs for 20 steps with 4096 atomrrrrun 20 pre no post no
Step Temp E_pair E_mol TotEng Press Volume 
     460     4444.086   -6897.1908            0   -4544.8459    173046.99     28506.23 
     480    4387.0205   -6875.1781            0   -4553.0391    175848.19    28506.307 
Loop time of 1.70838 on 4 procs for 20 steps with 4096 atorrrrrun 20 pre no post no
Step Temp E_pair E_mol TotEng Press Volume 
     480    4387.0205   -6875.1781            0   -4553.0391    175848.19    28506.307 
     500    4371.2207   -6874.4198            0    -4560.644    160656.13    28506.388 
Loop time of 1.70209 on 4 procs for 20 steps with 4096 atorrrrrun 20 pre no post no
Step Temp E_pair E_mol TotEng Press Volume 
     500    4371.2207   -6874.4198            0    -4560.644    160656.13    28506.388 
     520    4361.7604   -6877.7361            0   -4568.9678    161023.92     28506.47 
Loop time of 1.71123 on 4 procs for 20 steps with 4096 atorrrrrun 20 pre no post no
Step Temp E_pair E_mol TotEng Press Volume 
     520    4361.7604   -6877.7361            0   -4568.9678    161023.92     28506.47 
     540    4315.1737   -6859.5733            0   -4575.4643    155757.39    28506.554 
Loop time of 1.70991 on 4 procs for 20 steps with 4096 arun rrrun 20 pre no post no
Step Temp E_pair E_mol TotEng Press Volume 
     540    4315.1737   -6859.5733            0   -4575.4643    155757.39    28506.554 
     560    4443.0256   -6938.7244            0   -4586.9408    164825.62    28506.639 
Loop time of 1.7016 on 4 procs for 20 steps with 4096 atrunrrrun 20 pre no post no
Step Temp E_pair E_mol TotEng Press Volume 
     560    4443.0256   -6938.7244            0   -4586.9408    164825.62    28506.639 
     580    4328.7378   -6883.7739            0   -4592.4852    157192.95    28506.727 
Loop time of 1.69997 on 4 procs for 20 steps with 4096 atrunrurun 20 pre no post no
Step Temp E_pair E_mol TotEng Press Volume 
     580    4328.7378   -6883.7739            0   -4592.4852    157192.95    28506.727 
     600    4296.8191   -6874.9018            0   -4600.5083    163208.82    28506.817 
Loop time of 1.71559 on 4 procs for 20 steps with 4096 atrunrrrun 20 pre no post no
Step Temp E_pair E_mol TotEng Press Volume 
     600    4296.8191   -6874.9018            0   -4600.5083    163208.82    28506.817 
     620    4433.0902   -6955.9536            0    -4609.429    167032.52     28506.91 
Loop time of 1.71353 on 4 procs for 20 steps with 4096 arun rrrun 20 pre no post no
Step Temp E_pair E_mol TotEng Press Volume 
     620    4433.0902   -6955.9536            0    -4609.429    167032.52     28506.91 
     640    4378.5771   -6935.4804            0   -4617.8107    162631.25    28507.006 
Loop time of 1.70163 on 4 procs for 20 steps with 4096 run 2rrrun 20 pre no post no
Step Temp E_pair E_mol TotEng Press Volume 
     640    4378.5771   -6935.4804            0   -4617.8107    162631.25    28507.006 
     660    4458.4676   -6986.1459            0   -4626.1885    150325.48    28507.103 
Loop time of 1.70222 on 4 procs for 20 steps with 4096 run rurrun 20 pre no post no
Step Temp E_pair E_mol TotEng Press Volume 
     660    4458.4676   -6986.1459            0   -4626.1885    150325.48    28507.103 
     680    4358.1865   -6942.2673            0   -4635.3907    156490.99    28507.201 
Loop time of 1.71069 on 4 procs for 20 steps with 4096 run rurrun 20 pre no post no
Step Temp E_pair E_mol TotEng Press Volume 
     680    4358.1865   -6942.2673            0   -4635.3907    156490.99    28507.201 
     700      4371.59   -6957.2231            0   -4643.2518    144946.53      28507.3 
Loop time of 1.69947 on 4 procs for 20 steps with 4096 run rurrun 20 pre no post no
Step Temp E_pair E_mol TotEng Press Volume 
     700      4371.59   -6957.2231            0   -4643.2518    144946.53      28507.3 
     720    4337.8468   -6946.5156            0   -4650.4053    160957.61      28507.4 
Loop time of 1.70398 on 4 procs for 20 steps with 4096 run rurrun 20 pre no post no
Step Temp E_pair E_mol TotEng Press Volume 
     720    4337.8468   -6946.5156            0   -4650.4053    160957.61      28507.4 
     740    4357.2457   -6964.5867            0   -4658.2081    153411.18    28507.501 
Loop time of 1.73182 on 4 procs for 20 steps with 4096 run rrrrun 20 pre no post no
Step Temp E_pair E_mol TotEng Press Volume 
     740    4357.2457   -6964.5867            0   -4658.2081    153411.18    28507.501 
     760    4352.2126   -6970.7959            0   -4667.0814    144251.39    28507.603 
Loop time of 1.72805 on 4 procs for 20 steps with 4096 runrurrrun 20 pre no post no
Step Temp E_pair E_mol TotEng Press Volume 
     760    4352.2126   -6970.7959            0   -4667.0814    144251.39    28507.603 
     780    4362.4418   -6984.9508            0   -4675.8218    152838.02    28507.705 
Loop time of 1.73202 on 4 procs for 20 steps with 4096 runrrurrun 20 pre no post no
Step Temp E_pair E_mol TotEng Press Volume 
     780    4362.4418   -6984.9508            0   -4675.8218    152838.02    28507.705 
     800    4256.6779   -6934.7176            0   -4681.5716    160132.06    28507.808 
Loop time of 1.73259 on 4 procs for 20 steps with 4096 runrrurrun 20 pre no post no
Step Temp E_pair E_mol TotEng Press Volume 
     800    4256.6779   -6934.7176            0   -4681.5716    160132.06    28507.808 
     820    4262.7175   -6947.1035            0   -4690.7606    155807.67    28507.913 
Loop time of 1.72582 on 4 procs for 20 steps with 4096 runrrurrun 20 pre no post no
Step Temp E_pair E_mol TotEng Press Volume 
     820    4262.7175   -6947.1035            0   -4690.7606    155807.67    28507.913 
     840    4308.8657    -6979.798            0   -4699.0279    165012.52    28508.019 
Loop time of 1.71012 on 4 procs for 20 steps with 4096 runrrrrun 20 pre no post no
Step Temp E_pair E_mol TotEng Press Volume 
     840    4295.3246   -6966.1798            0   -4692.5773    179000.12    28507.379 
     860    4312.9976   -6983.0375            0   -4700.0803    152546.45    28507.469 
Loop time of 1.71478 on 4 procs for 20 steps with 4096 arunrrrrun 20 pre no post no
Step Temp E_pair E_mol TotEng Press Volume 
     860    4312.9976   -6983.0375            0   -4700.0803    152546.45    28507.469 
     880    4299.2316   -6982.9912            0   -4707.3207    152721.21     28507.56 
Loop time of 1.71319 on 4 procs for 20 steps with 4096 arunrrrrun 20 pre no post no
Step Temp E_pair E_mol TotEng Press Volume 
     880    4254.6926   -6963.7705            0   -4711.6754    153964.71    28508.236 
     900    4271.0436   -6981.3569            0   -4720.6069    141473.47    28508.345 
Loop time of 1.70983 on 4 procs for 20 steps with 4096 arunrrrrun 20 pre no post no
Step Temp E_pair E_mol TotEng Press Volume 
     900    4271.0436   -6981.3569            0   -4720.6069    141473.47    28508.345 
     920    4287.5536   -6999.2087            0   -4729.7196    153139.02    28508.452 
Loop time of 1.72451 on 4 procs for 20 steps with 4096 arunrunrun 20 pre no post no
Step Temp E_pair E_mol TotEng Press Volume 
     920     4276.768   -6987.1183            0   -4723.3382    141143.79    28507.747 
     940     4200.131   -6953.7726            0    -4730.558    151666.49    28507.841 
Loop time of 1.7321 on 4 procs for 20 steps with 4096 atrurrurun 20 pre no post no
Step Temp E_pair E_mol TotEng Press Volume 
     940     4200.131   -6953.7726            0    -4730.558    151666.49    28507.841 
     960     4249.745   -6988.6667            0   -4739.1904    158301.06    28507.935 
Loop time of 1.73122 on 4 procs for 20 steps with 4096 atrurrurun 20 pre no post no
Step Temp E_pair E_mol TotEng Press Volume 
     960     4249.745   -6988.6667            0   -4739.1904    158301.06    28507.935 
     980    4282.5613   -7013.7535            0   -4746.9069    154495.47    28508.032 
Loop time of 1.73838 on 4 procs for 20 steps with 4096 atrurrurun 20 pre no post no
Step Temp E_pair E_mol TotEng Press Volume 
     980    4282.5613   -7013.7535            0   -4746.9069    154495.47    28508.032 
    1000    4261.6677   -7011.1577            0   -4755.3705    161717.66     28508.13 
Loop time of 1.7139 on 4 procs for 20 steps with 4096 atorrurrun 20 pre no post no
Step Temp E_pair E_mol TotEng Press Volume 
    1000    4261.6677   -7011.1577            0   -4755.3705    161717.66     28508.13 
    1020    4175.2965   -6970.3388            0   -4760.2696    155660.65     28508.23 
Loop time of 1.6958 on 4 procs for 20 steps with 4096 atorururun 20 pre no post no
Step Temp E_pair E_mol TotEng Press Volume 
    1020    4175.2965   -6970.3388            0   -4760.2696    155660.65     28508.23 
    1040    4210.7514   -6996.9363            0   -4768.1001     154936.2     28508.33 
Loop time of 1.69307 on 4 procs for 20 steps with 4096 atorururun 20 pre no post no
Step Temp E_pair E_mol TotEng Press Volume 
    1040    4210.7514   -6996.9363            0   -4768.1001     154936.2     28508.33 
    1060    4324.5725    -7065.704            0     -4776.62    164657.11    28508.431 
Loop time of 1.69342 on 4 procs for 20 steps with 4096 atorurrrun 20 pre no post no
Step Temp E_pair E_mol TotEng Press Volume 
    1060    4324.5725    -7065.704            0     -4776.62    164657.11    28508.431 
    1080    4246.2932   -7030.9816            0   -4783.3324    156360.06    28508.534 
Loop time of 1.70444 on 4 procs for 20 steps with 4096 atorurrrun 20 pre no post no
Step Temp E_pair E_mol TotEng Press Volume 
    1080    4246.2932   -7030.9816            0   -4783.3324    156360.06    28508.534 
    1100    4313.4422   -7075.7624            0   -4792.5699    173369.66     28508.64 
Loop time of 1.69465 on 4 procs for 20 steps with 4096 atorurrrun 20 pre no post no
Step Temp E_pair E_mol TotEng Press Volume 
    1100    4313.4422   -7075.7624            0   -4792.5699    173369.66     28508.64 
    1120    4297.8082   -7075.0085            0   -4800.0915    156566.56    28508.748 
Loop time of 1.69827 on 4 procs for 20 steps with 4096 atorurrrun 20 pre no post no
Step Temp E_pair E_mol TotEng Press Volume 
    1120    4297.8082   -7075.0085            0   -4800.0915    156566.56    28508.748 
    1140    4256.7767   -7060.5452            0   -4807.3469    146825.51    28508.858 
Loop time of 1.70089 on 4 procs for 20 steps with 4096 atorurrrurun 20 pre no post no
Step Temp E_pair E_mol TotEng Press Volume 
    1140    4280.4999    -7081.461            0   -4815.7055    146008.36    28509.705 
    1160    4165.4619    -7026.599            0   -4821.7354    149061.82    28509.823 
Loop time of 1.72073 on 4 procs for 20 steps with 4096 arurrrurun 20 pre no post no
Step Temp E_pair E_mol TotEng Press Volume 
    1160    4165.4619    -7026.599            0   -4821.7354    149061.82    28509.823 
    1180    4224.5861   -7065.9212            0   -4829.7621    156267.19    28509.941 
Loop time of 1.72245 on 4 procs for 20 steps with 4096 arurrrurun 20 pre no post no
Step Temp E_pair E_mol TotEng Press Volume 
    1180    4224.5861   -7065.9212            0   -4829.7621    156267.19    28509.941 
    1200     4149.722   -7033.2133            0   -4836.6812    134971.34    28510.059 
Loop time of 1.72872 on 4 procs for 20 steps with 4096 arurrrurun 20 pre no post no
Step Temp E_pair E_mol TotEng Press Volume 
    1200     4149.722   -7033.2133            0   -4836.6812    134971.34    28510.059 
    1220     4189.465   -7062.0352            0   -4844.4663    147486.23    28510.175 
Loop time of 1.72587 on 4 procs for 20 steps with 4096 atrurrurun 20 pre no post no
Step Temp E_pair E_mol TotEng Press Volume 
    1220     4189.465   -7062.0352            0   -4844.4663    147486.23    28510.175 
    1240    4199.4789   -7074.5849            0   -4851.7155     160773.6    28510.291 
Loop time of 1.72534 on 4 procs for 20 steps with 4096 atrurrurun 20 pre no post no
Step Temp E_pair E_mol TotEng Press Volume 
    1240    4199.4789   -7074.5849            0   -4851.7155     160773.6    28510.291 
    1260    4282.2323   -7128.4455            0   -4861.7731    148245.72    28510.409 
Loop time of 1.71448 on 4 procs for 20 steps with 4096 rururrurun 20 pre no post no
Step Temp E_pair E_mol TotEng Press Volume 
    1260    4282.2323   -7128.4455            0   -4861.7731    148245.72    28510.409 
    1280    4170.5382   -7073.2271            0   -4865.6766    148122.69    28510.526 
Loop time of 1.73122 on 4 procs for 20 steps with 4096 rururunrun 20 pre no post no
Step Temp E_pair E_mol TotEng Press Volume 
    1280    4170.5382   -7073.2271            0   -4865.6766    148122.69    28510.526 
    1300    4160.5349    -7075.663            0   -4873.4074    147456.79    28510.642 
Loop time of 1.72687 on 4 procs for 20 steps with 4096 atrurunrun 20 pre no post no
Step Temp E_pair E_mol TotEng Press Volume 
    1300    4160.5349    -7075.663            0   -4873.4074    147456.79    28510.642 
    1320    4165.6046   -7085.7209            0   -4880.7819    140347.58    28510.757 
Loop time of 1.71928 on 4 procs for 20 steps with 4096 atomrunrun 20 pre no post no
Step Temp E_pair E_mol TotEng Press Volume 
    1320    4165.6046   -7085.7209            0   -4880.7819    140347.58    28510.757 
    1340    4164.8465   -7093.2678            0   -4888.7301    148387.36    28510.871 
Loop time of 1.72215 on 4 procs for 20 steps with 4096 atomrunrun 20 pre no post no
Step Temp E_pair E_mol TotEng Press Volume 
    1340    4164.8465   -7093.2678            0   -4888.7301    148387.36    28510.871 
    1360    4201.5993   -7120.2752            0   -4896.2834    145601.51    28510.984 
Loop time of 1.72054 on 4 procs for 20 steps with 4096 atomrunrun 20 pre no post no
Step Temp E_pair E_mol TotEng Press Volume 
    1360    4201.5993   -7120.2752            0   -4896.2834    145601.51    28510.984 
    1380    4206.6945   -7129.6402            0   -4902.9514    145858.55    28511.095 
Loop time of 1.69317 on 4 procs for 20 steps with 4096 atorrunrun 20 pre no post no
Step Temp E_pair E_mol TotEng Press Volume 
    1380    4206.6945   -7129.6402            0   -4902.9514    145858.55    28511.095 
    1400    4198.9358   -7132.5839            0    -4910.002    142305.04    28511.206 
Loop time of 1.69905 on 4 procs for 20 steps with 4096 atorrunrun 20 pre no post no
Step Temp E_pair E_mol TotEng Press Volume 
    1400    4198.9358   -7132.5839            0    -4910.002    142305.04    28511.206 
    1420    4250.7863   -7168.4578            0   -4918.4303    150954.51    28511.316 
Loop time of 1.71775 on 4 procs for 20 steps with 4096 atorrunrun 20 pre no post no
Step Temp E_pair E_mol TotEng Press Volume 
    1420    4250.7863   -7168.4578            0   -4918.4303    150954.51    28511.316 
    1440    4178.2677   -7136.8578            0   -4925.2159    133625.65    28511.426 
Loop time of 1.6966 on 4 procs for 20 steps with 4096 atomrrurun 20 pre no post no
Step Temp E_pair E_mol TotEng Press Volume 
    1440    4178.2677   -7136.8578            0   -4925.2159    133625.65    28511.426 
    1460    4195.5854   -7152.5208            0   -4931.7123     150365.8    28511.533 
Loop time of 1.72044 on 4 procs for 20 steps with 4096 atomrrurun 20 pre no post no
Step Temp E_pair E_mol TotEng Press Volume 
    1460    4195.5854   -7152.5208            0   -4931.7123     150365.8    28511.533 
    1480    4175.2607   -7148.6826            0   -4938.6324    152113.29    28511.641 
Loop time of 1.7097 on 4 procs for 20 steps with 4096 atomsrrrun 20 pre no post no
Step Temp E_pair E_mol TotEng Press Volume 
    1480    4175.2607   -7148.6826            0   -4938.6324    152113.29    28511.641 
    1500    4166.2649   -7152.1942            0   -4946.9056    149208.22    28511.749 
Loop time of 1.71296 on 4 procs for 20 steps with 4096 atomsrrrun 20 pre no post no
Step Temp E_pair E_mol TotEng Press Volume 
    1500    4166.2649   -7152.1942            0   -4946.9056    149208.22    28511.749 
    1520     4252.868   -7206.3744            0   -4955.2451    158942.23    28511.858 
Loop time of 1.70549 on 4 procs for 20 steps with 4096 atomrrurun 20 pre no post no
Step Temp E_pair E_mol TotEng Press Volume 
    1520     4252.868   -7206.3744            0   -4955.2451    158942.23    28511.858 
    1540    4126.1383   -7143.4437            0    -4959.395    150637.15    28511.968 
Loop time of 1.70648 on 4 procs for 20 steps with 4096 atomrrurun 20 pre no post no
Step Temp E_pair E_mol TotEng Press Volume 
    1540    4126.1383   -7143.4437            0    -4959.395    150637.15    28511.968 
    1560    4131.6639     -7152.85            0   -4965.8765    154731.03     28512.08 
Loop time of 1.70339 on 4 procs for 20 steps with 4096 atomrrurun 20 pre no post no
Step Temp E_pair E_mol TotEng Press Volume 
    1560    4131.6639     -7152.85            0   -4965.8765    154731.03     28512.08 
    1580    4096.2164   -7140.7078            0   -4972.4974    144770.69    28512.192 
Loop time of 1.69958 on 4 procs for 20 steps with 4096 atomrrurun 20 pre no post no
Step Temp E_pair E_mol TotEng Press Volume 
    1580    4096.2164   -7140.7078            0   -4972.4974    144770.69    28512.192 
    1600    4144.3104   -7174.2264            0   -4980.5588    158952.23    28512.305 
Loop time of 1.7044 on 4 procs for 20 steps with 4096 atomsrrrun 20 pre no post no
Step Temp E_pair E_mol TotEng Press Volume 
    1600    4144.3104   -7174.2264            0   -4980.5588    158952.23    28512.305 
    1620    4120.8284    -7167.726            0   -4986.4879    145267.28    28512.418 
Loop time of 1.70634 on 4 procs for 20 steps with 4096 atomrrrrun 20 pre no post no
Step Temp E_pair E_mol TotEng Press Volume 
    1620    4120.8284    -7167.726            0   -4986.4879    145267.28    28512.418 
    1640    4136.5926   -7183.7774            0    -4994.195    144996.76    28512.531 
Loop time of 1.68795 on 4 procs for 20 steps with 4096 atomrrun 20 pre no post no
Step Temp E_pair E_mol TotEng Press Volume 
    1640    4097.6395   -7158.2306            0   -4989.2669    146573.66    28511.866 
    1660    4119.1752   -7176.8036            0   -4996.4406    157866.53    28511.984 
Loop time of 1.72637 on 4 procs for 20 steps with 4096 atoms
rrun 20 pre no post no
Step Temp E_pair E_mol TotEng Press Volume 
    1660    4119.1752   -7176.8036            0   -4996.4406    157866.53    28511.984 
    1680    4207.6122   -7232.2363            0   -5005.0618    152606.17    28512.102 
Loop time of 1.71302 on 4 procs for 20 steps with 4096 atoms
rrun 20 pre no post no
Step Temp E_pair E_mol TotEng Press Volume 
    1680    4207.6122   -7232.2363            0   -5005.0618    152606.17    28512.102 
    1700    4114.6923   -7189.5567            0   -5011.5666    144738.21    28512.222 
Loop time of 1.72113 on 4 procs for 20 steps with 4096 atoms
rrun 20 pre no post no
Step Temp E_pair E_mol TotEng Press Volume 
    1700    4114.6923   -7189.5567            0   -5011.5666    144738.21    28512.222 
    1720     4150.148   -7213.0516            0    -5016.294    149510.42    28512.341 
Loop time of 1.70284 on 4 procs for 20 steps with 4096 atomsrrrurun 20 pre no post no
Step Temp E_pair E_mol TotEng Press Volume 
    1720    4163.0113   -7225.0003            0   -5021.4339    155677.38    28512.982 
    1740    4113.3277   -7207.3906            0   -5030.1228    159377.39    28513.096 
Loop time of 1.72897 on 4 procs for 20 steps with 4096 atrurrurun 20 pre no post no
Step Temp E_pair E_mol TotEng Press Volume 
    1740    4113.3277   -7207.3906            0   -5030.1228    159377.39    28513.096 
    1760    4133.5888   -7223.3055            0   -5035.3131     156891.5    28513.212 
Loop time of 1.71641 on 4 procs for 20 steps with 4096 atrrurun 20 pre no post no
Step Temp E_pair E_mol TotEng Press Volume 
    1760    4159.3756   -7233.0681            0   -5031.4262    129738.57     28512.58 
    1780    4197.3263   -7260.1473            0   -5038.4173    158180.86    28512.696 
Loop time of 1.7215 on 4 procs for 20 steps with 4096 atomsrrrun 20 pre no post no
Step Temp E_pair E_mol TotEng Press Volume 
    1780    4197.3263   -7260.1473            0   -5038.4173    158180.86    28512.696 
    1800    4140.3811   -7235.6163            0   -5044.0286    142967.29    28512.813 
Loop time of 1.71169 on 4 procs for 20 steps with 4096 atomrunrun 20 pre no post no
Step Temp E_pair E_mol TotEng Press Volume 
    1800    4140.3811   -7235.6163            0   -5044.0286    142967.29    28512.813 
    1820    4119.6531     -7233.03            0    -5052.414    153452.14    28512.928 
Loop time of 1.71248 on 4 procs for 20 steps with 4096 atorun run 20 pre no post no
Step Temp E_pair E_mol TotEng Press Volume 
    1820    4119.6531     -7233.03            0    -5052.414    153452.14    28512.928 
    1840    4064.3977   -7208.7838            0   -5057.4156    146169.49    28513.043 
Loop time of 1.71423 on 4 procs for 20 steps with 4096 atrun 2run 20 pre no post no
Step Temp E_pair E_mol TotEng Press Volume 
    1840    4064.3977   -7208.7838            0   -5057.4156    146169.49    28513.043 
    1860    4089.9317   -7228.8265            0   -5063.9427    143240.79    28513.157 
Loop time of 1.72157 on 4 procs for 20 steps with 4096 atrun 2run 20 pre no post no
Step Temp E_pair E_mol TotEng Press Volume 
    1860    4089.9317   -7228.8265            0   -5063.9427    143240.79    28513.157 
    1880    4076.1792   -7227.8598            0   -5070.2554    134110.25     28513.27 
Loop time of 1.7321 on 4 procs for 20 steps with 4096 atorun run 20 pre no post no
Step Temp E_pair E_mol TotEng Press Volume 
    1880    4076.1792   -7227.8598            0   -5070.2554    134110.25     28513.27 
    1900     4054.246    -7223.492            0   -5077.4973    151534.36     28513.38 
Loop time of 1.72787 on 4 procs for 20 steps with 4096 atorun run 20 pre no post no
Step Temp E_pair E_mol TotEng Press Volume 
    1900     4054.246    -7223.492            0   -5077.4973    151534.36     28513.38 
    1920    4065.7999   -7236.6401            0   -5084.5297    131116.32    28513.491 
Loop time of 1.71264 on 4 procs for 20 steps with 4096 atrun rrun 20 pre no post no
Step Temp E_pair E_mol TotEng Press Volume 
    1920    4065.7999   -7236.6401            0   -5084.5297    131116.32    28513.491 
    1940    4045.2602   -7231.4806            0   -5090.2423    152218.51    28513.599 
Loop time of 1.72612 on 4 procs for 20 steps with 4096 atrun rrun 20 pre no post no
Step Temp E_pair E_mol TotEng Press Volume 
    1940    4045.2602   -7231.4806            0   -5090.2423    152218.51    28513.599 
    1960    4028.6301   -7228.6319            0   -5096.1962    145552.66    28513.708 
Loop time of 1.73036 on 4 procs for 20 steps with 4096 atrun rrun 20 pre no post no
Step Temp E_pair E_mol TotEng Press Volume 
    1960    4028.6301   -7228.6319            0   -5096.1962    145552.66    28513.708 
    1980    4025.5372   -7234.4045            0    -5103.606    149347.12    28513.816 
Loop time of 1.71288 on 4 procs for 20 steps with 4096 atrun rrun 20 pre no post no
Step Temp E_pair E_mol TotEng Press Volume 
    1980    4025.5372   -7234.4045            0    -5103.606    149347.12    28513.816 
    2000    4086.2018   -7272.7233            0   -5109.8137    146512.37    28513.923 
Loop time of 1.73543 on 4 procs for 20 steps with 4096 atrun rrun 20 pre no post no
Step Temp E_pair E_mol TotEng Press Volume 
    2000    4086.2018   -7272.7233            0   -5109.8137    146512.37    28513.923 
    2020    4015.3994   -7240.0719            0   -5114.6395    140742.17    28514.029 
Loop time of 1.70722 on 4 procs for 20 steps with 4096 atrun rrun 20 pre no post no
Step Temp E_pair E_mol TotEng Press Volume 
    2020    4015.3994   -7240.0719            0   -5114.6395    140742.17    28514.029 
    2040     4032.396   -7255.7482            0   -5121.3192    145824.35    28514.135 
Loop time of 1.70194 on 4 procs for 20 steps with 4096 atrunrurun 20 pre no post no
Step Temp E_pair E_mol TotEng Press Volume 
    2040     4032.396   -7255.7482            0   -5121.3192    145824.35    28514.135 
    2060    4110.9676   -7305.4412            0   -5129.4226    151534.28    28514.239 
Loop time of 1.69366 on 4 procs for 20 steps with 4096 atrunrurun 20 pre no post no
Step Temp E_pair E_mol TotEng Press Volume 
    2060    4110.9676   -7305.4412            0   -5129.4226    151534.28    28514.239 
    2080    3995.2932   -7248.6978            0    -5133.908    137911.36    28514.344 
Loop time of 1.70522 on 4 procs for 20 steps with 4096 atrunrurun 20 pre no post no
Step Temp E_pair E_mol TotEng Press Volume 
    2080    3995.2932   -7248.6978            0    -5133.908    137911.36    28514.344 
    2100    4139.6872   -7334.1885            0   -5142.9681    152281.91    28514.448 
Loop time of 1.70194 on 4 procs for 20 steps with 4096 atrurunrun 20 pre no post no
Step Temp E_pair E_mol TotEng Press Volume 
    2100    4139.6872   -7334.1885            0   -5142.9681    152281.91    28514.448 
    2120    4028.6645   -7279.0852            0   -5146.6314    149300.89    28514.552 
Loop time of 1.70454 on 4 procs for 20 steps with 4096 atrurunrun 20 pre no post no
Step Temp E_pair E_mol TotEng Press Volume 
    2120    4028.6645   -7279.0852            0   -5146.6314    149300.89    28514.552 
    2140    4112.9461   -7332.6554            0   -5155.5896    148355.59    28514.656 
Loop time of 1.72264 on 4 procs for 20 steps with 4096 atrurunrun 20 pre no post no
Step Temp E_pair E_mol TotEng Press Volume 
    2140    4112.9461   -7332.6554            0   -5155.5896    148355.59    28514.656 
    2160    4037.7913   -7297.5231            0   -5160.2383    134984.63    28514.759 
Loop time of 1.70996 on 4 procs for 20 steps with 4096 atrrun run 20 pre no post no
Step Temp E_pair E_mol TotEng Press Volume 
    2160    4037.7913   -7297.5231            0   -5160.2383    134984.63    28514.759 
    2180    4100.8509   -7337.3691            0   -5166.7054     143199.3     28514.86 
Loop time of 1.69767 on 4 procs for 20 steps with 4096 atrrunrrun 20 pre no post no
Step Temp E_pair E_mol TotEng Press Volume 
    2180    4100.8509   -7337.3691            0   -5166.7054     143199.3     28514.86 
    2200    4083.5748    -7334.414            0    -5172.895    133342.75     28514.96 
Loop time of 1.70232 on 4 procs for 20 steps with 4096 atrrunrrun 20 pre no post no
Step Temp E_pair E_mol TotEng Press Volume 
    2200    4083.5748    -7334.414            0    -5172.895    133342.75     28514.96 
    2220    3994.8579   -7293.7637            0   -5179.2043    132705.94    28515.057 
Loop time of 1.70049 on 4 procs for 20 steps with 4096 atrrunrrun 20 pre no post no
Step Temp E_pair E_mol TotEng Press Volume 
    2220    3994.8579   -7293.7637            0   -5179.2043    132705.94    28515.057 
    2240     3969.207   -7284.2596            0   -5183.2778    123709.91    28515.151 
Loop time of 1.69644 on 4 procs for 20 steps with 4096 atrrunrrun 20 pre no post no
Step Temp E_pair E_mol TotEng Press Volume 
    2240     3969.207   -7284.2596            0   -5183.2778    123709.91    28515.151 
    2260    4087.3505   -7355.2226            0    -5191.705    132664.35     28515.24 
Loop time of 1.71173 on 4 procs for 20 steps with 4096 atrrunrrun 20 pre no post no
Step Temp E_pair E_mol TotEng Press Volume 
    2260    4087.3505   -7355.2226            0    -5191.705    132664.35     28515.24 
    2280    3992.9789   -7309.0036            0   -5195.4389    125136.79    28515.326 
Loop time of 1.72574 on 4 procs for 20 steps with 4096 atrrunrrun 20 pre no post no
Step Temp E_pair E_mol TotEng Press Volume 
    2280    3992.9789   -7309.0036            0   -5195.4389    125136.79    28515.326 
    2300    4043.8714   -7344.2342            0    -5203.731    136683.24    28515.408 
Loop time of 1.73425 on 4 procs for 20 steps with 4096 atrrunrrun 20 pre no post no
Step Temp E_pair E_mol TotEng Press Volume 
    2300    4043.8714   -7344.2342            0    -5203.731    136683.24    28515.408 
    2320    3972.7594   -7311.0582            0   -5208.1961    122394.49    28515.487 
Loop time of 1.72674 on 4 procs for 20 steps with 4096 atrrurrrun 20 pre no post no
Step Temp E_pair E_mol TotEng Press Volume 
    2320    3972.7594   -7311.0582            0   -5208.1961    122394.49    28515.487 
    2340    4032.6504    -7349.283            0   -5214.7193    134033.28    28515.562 
Loop time of 1.70983 on 4 procs for 20 steps with 4096 arururrrun 20 pre no post no
Step Temp E_pair E_mol TotEng Press Volume 
    2340    4032.6504    -7349.283            0   -5214.7193    134033.28    28515.562 
    2360    4059.5892    -7368.017            0    -5219.194    143420.64    28515.634 
Loop time of 1.72078 on 4 procs for 20 steps with 4096 arururrrun 20 pre no post no
Step Temp E_pair E_mol TotEng Press Volume 
    2360    4059.5892    -7368.017            0    -5219.194    143420.64    28515.634 
    2380    4116.8685   -7404.4404            0   -5225.2983     144454.3    28515.703 
Loop time of 1.72473 on 4 procs for 20 steps with 4096 arururrrun 20 pre no post no
Step Temp E_pair E_mol TotEng Press Volume 
    2380    4116.8685   -7404.4404            0   -5225.2983     144454.3    28515.703 
    2400     3970.571   -7333.8163            0   -5232.1125     134583.2     28515.77 
Loop time of 1.7267 on 4 procs for 20 steps with 4096 atrun rrun 20 pre no post no
Step Temp E_pair E_mol TotEng Press Volume 
    2400     3970.571   -7333.8163            0   -5232.1125     134583.2     28515.77 
    2420    4025.4272   -7367.6783            0    -5236.938    135792.45    28515.835 
Loop time of 1.7352 on 4 procs for 20 steps with 4096 atorunrrun 20 pre no post no
Step Temp E_pair E_mol TotEng Press Volume 
    2420    4025.4272   -7367.6783            0    -5236.938    135792.45    28515.835 
    2440    4060.9161   -7392.6731            0   -5243.1478    140024.78    28515.898 
Loop time of 1.73737 on 4 procs for 20 steps with 4096 atorunrrun 20 pre no post no
Step Temp E_pair E_mol TotEng Press Volume 
    2440    4060.9161   -7392.6731            0   -5243.1478    140024.78    28515.898 
    2460    3989.8131   -7360.2611            0    -5248.372    134709.23    28515.958 
Loop time of 1.74936 on 4 procs for 20 steps with 4096 atorunrrun 20 pre no post no
Step Temp E_pair E_mol TotEng Press Volume 
    2460    3989.8131   -7360.2611            0    -5248.372    134709.23    28515.958 
    2480     4021.569    -7383.438            0   -5254.7399     147860.6    28516.017 
Loop time of 1.73909 on 4 procs for 20 steps with 4096 atorunrrun 20 pre no post no
Step Temp E_pair E_mol TotEng Press Volume 
    2480     4021.569    -7383.438            0   -5254.7399     147860.6    28516.017 
    2500    3922.8021   -7335.4505            0   -5259.0317    140199.97    28516.075 
Loop time of 1.73073 on 4 procs for 20 steps with 4096 atrun rrun 20 pre no post no
Step Temp E_pair E_mol TotEng Press Volume 
    2500    3922.8021   -7335.4505            0   -5259.0317    140199.97    28516.075 
    2520    3986.0108   -7374.8712            0   -5264.9948    139762.04    28516.131 
Loop time of 1.72421 on 4 procs for 20 steps with 4096 atrun rrun 20 pre no post no
Step Temp E_pair E_mol TotEng Press Volume 
    2520    3986.0108   -7374.8712            0   -5264.9948    139762.04    28516.131 
    2540     4003.841   -7389.9713            0    -5270.657    144598.16    28516.185 
Loop time of 1.72911 on 4 procs for 20 steps with 4096 atrun rrun 20 pre no post no
Step Temp E_pair E_mol TotEng Press Volume 
    2540     4003.841   -7389.9713            0    -5270.657    144598.16    28516.185 
    2560    3985.7337   -7386.4815            0   -5276.7517    150384.54    28516.238 
Loop time of 1.73357 on 4 procs for 20 steps with 4096 atrunrrrun 20 pre no post no
Step Temp E_pair E_mol TotEng Press Volume 
    2560    3985.7337   -7386.4815            0   -5276.7517    150384.54    28516.238 
    2580    4008.5962   -7403.4167            0   -5281.5853    148675.62    28516.291 
Loop time of 1.71097 on 4 procs for 20 steps with 4096 atrunrrrun 20 pre no post no
Step Temp E_pair E_mol TotEng Press Volume 
    2580    4008.5962   -7403.4167            0   -5281.5853    148675.62    28516.291 
    2600    3971.8669   -7389.2865            0   -5286.8967    146582.31    28516.343 
Loop time of 1.72149 on 4 procs for 20 steps with 4096 atrurunrun 20 pre no post no
Step Temp E_pair E_mol TotEng Press Volume 
    2600    3971.8669   -7389.2865            0   -5286.8967    146582.31    28516.343 
    2620    4000.9042   -7411.7901            0   -5294.0303    136112.86    28516.395 
Loop time of 1.71429 on 4 procs for 20 steps with 4096 atrrun run 20 pre no post no
Step Temp E_pair E_mol TotEng Press Volume 
    2620    4000.9042   -7411.7901            0   -5294.0303    136112.86    28516.395 
    2640    4005.0318   -7419.1261            0   -5299.1815    149705.85    28516.445 
Loop time of 1.72946 on 4 procs for 20 steps with 4096 atrun 2run 20 pre no post no
Step Temp E_pair E_mol TotEng Press Volume 
    2640    4005.0318   -7419.1261            0   -5299.1815    149705.85    28516.445 
    2660    3969.0275   -7405.1192            0   -5304.2324    142055.08    28516.494 
Loop time of 1.70911 on 4 procs for 20 steps with 4096 atrun 2run 20 pre no post no
Step Temp E_pair E_mol TotEng Press Volume 
    2660    3969.0275   -7405.1192            0   -5304.2324    142055.08    28516.494 
    2680    3950.1793    -7400.468            0   -5309.5579    154788.61    28516.543 
Loop time of 1.71406 on 4 procs for 20 steps with 4096 atrun rrun 20 pre no post no
Step Temp E_pair E_mol TotEng Press Volume 
    2680    3950.1793    -7400.468            0   -5309.5579    154788.61    28516.543 
    2700    3925.4976   -7391.7928            0   -5313.9473    144381.47    28516.591 
Loop time of 1.73202 on 4 procs for 20 steps with 4096 atrun rrun 20 pre no post no
Step Temp E_pair E_mol TotEng Press Volume 
    2700    3925.4976   -7391.7928            0   -5313.9473    144381.47    28516.591 
    2720    3997.6805   -7436.0902            0   -5320.0367     150278.9    28516.639 
Loop time of 1.72536 on 4 procs for 20 steps with 4096 atrun rrun 20 pre no post no
Step Temp E_pair E_mol TotEng Press Volume 
    2720    3997.6805   -7436.0902            0   -5320.0367     150278.9    28516.639 
    2740    3999.7112   -7442.1443            0    -5325.016    139147.81    28516.686 
Loop time of 1.72588 on 4 procs for 20 steps with 4096 arun 2rrun 20 pre no post no
Step Temp E_pair E_mol TotEng Press Volume 
    2740    3999.7112   -7442.1443            0    -5325.016    139147.81    28516.686 
    2760    3937.4306   -7414.6016            0   -5330.4397    136928.63    28516.732 
Loop time of 1.72 on 4 procs for 20 steps with 4096 atomrunrun 20 pre no post no
Step Temp E_pair E_mol TotEng Press Volume 
    2760    3937.4306   -7414.6016            0   -5330.4397    136928.63    28516.732 
    2780    3929.0603   -7414.7158            0   -5334.9845    144927.67    28516.776 
Loop time of 1.71082 on 4 procs for 20 steps with 4096 atorun run 20 pre no post no
Step Temp E_pair E_mol TotEng Press Volume 
    2780    3929.0603   -7414.7158            0   -5334.9845    144927.67    28516.776 
    2800    3964.0247   -7439.6973            0   -5341.4586    148121.75     28516.82 
Loop time of 1.70868 on 4 procs for 20 steps with 4096 atorun run 20 pre no post no
Step Temp E_pair E_mol TotEng Press Volume 
    2800    3964.0247   -7439.6973            0   -5341.4586    148121.75     28516.82 
    2820    4007.4116    -7468.394            0   -5347.1898    144261.37    28516.864 
Loop time of 1.70785 on 4 procs for 20 steps with 4096 atorun run 20 pre no post no
Step Temp E_pair E_mol TotEng Press Volume 
    2820    4007.4116    -7468.394            0   -5347.1898    144261.37    28516.864 
    2840    3889.1796   -7410.9474            0   -5352.3257    147638.29    28516.907 
Loop time of 1.70936 on 4 procs for 20 steps with 4096 atorun run 20 pre no post no
Step Temp E_pair E_mol TotEng Press Volume 
    2840    3889.1796   -7410.9474            0   -5352.3257    147638.29    28516.907 
    2860    3925.3309   -7435.7506            0   -5357.9933    138108.98    28516.951 
Loop time of 1.71278 on 4 procs for 20 steps with 4096 atorun run 20 pre no post no
Step Temp E_pair E_mol TotEng Press Volume 
    2860    3925.3309   -7435.7506            0   -5357.9933    138108.98    28516.951 
    2880    3999.8588   -7480.9105            0   -5363.7041    143341.31    28516.993 
Loop time of 1.70784 on 4 procs for 20 steps with 4096 arun 20run 20 pre no post no
Step Temp E_pair E_mol TotEng Press Volume 
    2880    3999.8588   -7480.9105            0   -5363.7041    143341.31    28516.993 
    2900    4012.9762   -7493.9117            0    -5369.762    146126.35    28517.035 
Loop time of 1.71573 on 4 procs for 20 steps with 4096 arun 20run 20 pre no post no
Step Temp E_pair E_mol TotEng Press Volume 
    2900    4012.9762   -7493.9117            0    -5369.762    146126.35    28517.035 
    2920     4001.168   -7491.9998            0   -5374.1003    141591.46    28517.075 
Loop time of 1.70973 on 4 procs for 20 steps with 4096 run 20 run 20 pre no post no
Step Temp E_pair E_mol TotEng Press Volume 
    2920     4001.168   -7491.9998            0   -5374.1003    141591.46    28517.075 
    2940    3940.9191    -7465.015            0   -5379.0065    150465.66    28517.114 
Loop time of 1.70228 on 4 procs for 20 steps with 4096 run 20 run 20 pre no post no
Step Temp E_pair E_mol TotEng Press Volume 
    2940    3940.9191    -7465.015            0   -5379.0065    150465.66    28517.114 
    2960    3950.7182   -7474.9606            0   -5383.7653     129252.8    28517.152 
Loop time of 1.69482 on 4 procs for 20 steps with 4096 run 20 run 20 pre no post no
Step Temp E_pair E_mol TotEng Press Volume 
    2960    3950.7182   -7474.9606            0   -5383.7653     129252.8    28517.152 
    2980    3866.5838   -7434.6781            0   -5388.0169    142494.73    28517.188 
Loop time of 1.70756 on 4 procs for 20 steps with 4096 run 20 run 20 pre no post no
Step Temp E_pair E_mol TotEng Press Volume 
    2980    3866.5838   -7434.6781            0   -5388.0169    142494.73    28517.188 
    3000    4017.2735   -7521.7923            0   -5395.3679    136981.89    28517.221 
Loop time of 1.71328 on 4 procs for 20 steps with 4096 run 20 run 20 pre no post no
Step Temp E_pair E_mol TotEng Press Volume 
    3000    4017.2735   -7521.7923            0   -5395.3679    136981.89    28517.221 
    3020    3993.7981     -7513.85            0   -5399.8516    150808.95    28517.253 
Loop time of 1.68466 on 4 procs for 20 steps with 4096 run 20 run 20 pre no post no
Step Temp E_pair E_mol TotEng Press Volume 
    3020    3993.7981     -7513.85            0   -5399.8516    150808.95    28517.253 
    3040    3995.3608   -7519.9343            0   -5405.1087    137929.18    28517.284 
Loop time of 1.69071 on 4 procs for 20 steps with 4096 run 20 run 20 pre no post no
Step Temp E_pair E_mol TotEng Press Volume 
    3040    3995.3608   -7519.9343            0   -5405.1087    137929.18    28517.284 
    3060    3988.9125   -7522.2288            0   -5410.8165    131844.86    28517.313 
Loop time of 1.69828 on 4 procs for 20 steps with 4096 run 20 run 20 pre no post no
Step Temp E_pair E_mol TotEng Press Volume 
    3060    3988.9125   -7522.2288            0   -5410.8165    131844.86    28517.313 
    3080    3995.0217   -7529.7915            0   -5415.1455    124541.83    28517.338 
Loop time of 1.72044 on 4 procs for 20 steps with 4096run 20 prun 20 pre no post no
Step Temp E_pair E_mol TotEng Press Volume 
    3080    3995.0217   -7529.7915            0   -5415.1455    124541.83    28517.338 
    3100    3953.4916   -7512.4312            0   -5419.7679    126527.72    28517.359 
Loop time of 1.73236 on 4 procs for 20 steps with 4096run 20 prun 20 pre no post no
Step Temp E_pair E_mol TotEng Press Volume 
    3100    3953.4916   -7512.4312            0   -5419.7679    126527.72    28517.359 
    3120     4057.955   -7574.9346            0   -5426.9766    125707.13    28517.376 
Loop time of 1.71386 on 4 procs for 20 steps with 409run 20 prrun 20 pre no post no
Step Temp E_pair E_mol TotEng Press Volume 
    3120     4057.955   -7574.9346            0   -5426.9766    125707.13    28517.376 
    3140    3982.2817   -7540.5338            0   -5432.6313    141622.47    28517.389 
Loop time of 1.70111 on 4 procs for 20 steps with 409run 20 prrun 20 pre no post no
Step Temp E_pair E_mol TotEng Press Volume 
    3140    3982.2817   -7540.5338            0   -5432.6313    141622.47    28517.389 
    3160    3901.3697   -7500.9007            0   -5435.8265    139733.89      28517.4 
Loop time of 1.71739 on 4 procs for 20 steps with 409run 20 prrun 20 pre no post no
Step Temp E_pair E_mol TotEng Press Volume 
    3160    3901.3697   -7500.9007            0   -5435.8265    139733.89      28517.4 
    3180       4002.1   -7561.7225            0   -5443.3297    142152.48    28517.409 
Loop time of 1.71049 on 4 procs for 20 steps with 40run 20 prerun 20 pre no post no
Step Temp E_pair E_mol TotEng Press Volume 
    3180       4002.1   -7561.7225            0   -5443.3297    142152.48    28517.409 
    3200    3950.9976   -7538.1297            0   -5446.7865     137241.3    28517.416 
Loop time of 1.71292 on 4 procs for 20 steps with 40run 20 prerun 20 pre no post no
Step Temp E_pair E_mol TotEng Press Volume 
    3200    3950.9976   -7538.1297            0   -5446.7865     137241.3    28517.416 
    3220    3951.1603   -7543.3148            0   -5451.8855    143592.62    28517.421 
Loop time of 1.69155 on 4 procs for 20 steps withrun 20 pre norun 20 pre no post no
Step Temp E_pair E_mol TotEng Press Volume 
    3220    3951.1603   -7543.3148            0   -5451.8855    143592.62    28517.421 
    3240    3873.4086    -7507.446            0   -5457.1722    130625.22    28517.424 
Loop time of 1.70197 on 4 procs for 20 steps withrun 20 pre norun 20 pre no post no
Step Temp E_pair E_mol TotEng Press Volume 
    3240    3873.4086    -7507.446            0   -5457.1722    130625.22    28517.424 
    3260    3870.2967    -7509.184            0   -5460.5574    155571.79    28517.425 
Loop time of 1.70144 on 4 procs for 20 steps withrun 20 pre norun 20 pre no post no
Step Temp E_pair E_mol TotEng Press Volume 
    3260    3870.2967    -7509.184            0   -5460.5574    155571.79    28517.425 
    3280    3943.6672   -7555.0531            0     -5467.59    140682.52    28517.426 
Loop time of 1.72112 on 4 procs for 20 steps withrun 20 pre norun 20 pre no post no
Step Temp E_pair E_mol TotEng Press Volume 
    3280    3943.6672   -7555.0531            0     -5467.59    140682.52    28517.426 
    3300    3920.2748    -7546.738            0    -5471.657    147292.96    28517.425 
Loop time of 1.69264 on 4 procs for 20 steps withrun 20 pre norun 20 pre no post no
Step Temp E_pair E_mol TotEng Press Volume 
    3300    3920.2748    -7546.738            0    -5471.657    147292.96    28517.425 
    3320    3893.8083   -7538.4873            0   -5477.4155    147025.87    28517.424 
Loop time of 1.68692 on 4 procs for 20 steps withrun 20 pre norun 20 pre no post no
Step Temp E_pair E_mol TotEng Press Volume 
    3320    3893.8083   -7538.4873            0   -5477.4155    147025.87    28517.424 
    3340    3971.6021   -7585.3468            0   -5483.0973    135802.91    28517.421 
Loop time of 1.70372 on 4 procs for 20 steps withrun 20 pre norun 20 pre no post no
Step Temp E_pair E_mol TotEng Press Volume 
    3340    3971.6021   -7585.3468            0   -5483.0973    135802.91    28517.421 
    3360    3902.1008    -7552.228            0   -5486.7668    130201.11    28517.416 
Loop time of 1.70936 on 4 procs for 20 steps withrun 20 pre nrrun 20 pre no post no
Step Temp E_pair E_mol TotEng Press Volume 
    3360    3902.1008    -7552.228            0   -5486.7668    130201.11    28517.416 
    3380     3858.733   -7532.6324            0   -5490.1267    135637.88    28517.409 
Loop time of 1.71298 on 4 procs for 20 steps withrun 20 pre nrrun 20 pre no post no
Step Temp E_pair E_mol TotEng Press Volume 
    3380     3858.733   -7532.6324            0   -5490.1267    135637.88    28517.409 
    3400    3921.7188   -7571.9454            0   -5496.1001    141003.29    28517.399 
Loop time of 1.69722 on 4 procs for 20 steps withrun 20 pre nrrun 20 pre no post no
Step Temp E_pair E_mol TotEng Press Volume 
    3400    3921.7188   -7571.9454            0   -5496.1001    141003.29    28517.399 
    3420     3926.819   -7579.6564            0   -5501.1114    139008.16    28517.388 
Loop time of 1.71498 on 4 procs for 20 steps withrun 20 pre nrrun 20 pre no post no
Step Temp E_pair E_mol TotEng Press Volume 
    3420     3926.819   -7579.6564            0   -5501.1114    139008.16    28517.388 
    3440    3936.4544   -7588.7361            0   -5505.0909    133823.49    28517.374 
Loop time of 1.71124 on 4 procs for 20 steps withrun 20 pre rurun 20 pre no post no
Step Temp E_pair E_mol TotEng Press Volume 
    3440    3936.4544   -7588.7361            0   -5505.0909    133823.49    28517.374 
    3460    3900.1145   -7574.1252            0   -5509.7154    131467.09    28517.357 
Loop time of 1.73566 on 4 procs for 20 steps withrun 20 pre rurun 20 pre no post no
Step Temp E_pair E_mol TotEng Press Volume 
    3460    3900.1145   -7574.1252            0   -5509.7154    131467.09    28517.357 
    3480    3888.5462   -7572.7326            0   -5514.4462     144115.3    28517.337 
Loop time of 1.7448 on 4 procs for 20 steps withrun 20 pre nrrun 20 pre no post no
Step Temp E_pair E_mol TotEng Press Volume 
    3480    3888.5462   -7572.7326            0   -5514.4462     144115.3    28517.337 
    3500     3853.153   -7558.5902            0   -5519.0381    136244.35    28517.314 
Loop time of 1.71938 on 4 procs for 20 steps withrun 20 pre nrrun 20 pre no post no
Step Temp E_pair E_mol TotEng Press Volume 
    3500     3853.153   -7558.5902            0   -5519.0381    136244.35    28517.314 
    3520    3899.4976   -7586.2648            0   -5522.1815    132522.66    28517.289 
Loop time of 1.69893 on 4 procs for 20 steps withrun 20 pre nrrun 20 pre no post no
Step Temp E_pair E_mol TotEng Press Volume 
    3520    3899.4976   -7586.2648            0   -5522.1815    132522.66    28517.289 
    3540    3995.3232   -7645.5972            0   -5530.7916    133847.56     28517.26 
Loop time of 1.70055 on 4 procs for 20 steps withrun 20 pre nrrun 20 pre no post no
Step Temp E_pair E_mol TotEng Press Volume 
    3540    3995.3232   -7645.5972            0   -5530.7916    133847.56     28517.26 
    3560    3837.1459   -7563.6521            0   -5532.5729    135268.76    28517.229 
Loop time of 1.70357 on 4 procs for 20 steps withrun 20 pre nrrun 20 pre no post no
Step Temp E_pair E_mol TotEng Press Volume 
    3560    3837.1459   -7563.6521            0   -5532.5729    135268.76    28517.229 
    3580     3882.627   -7592.9129            0   -5537.7596    125340.68    28517.194 
Loop time of 1.72758 on 4 procs for 20 steps withrun 20 pre nrrun 20 pre no post no
Step Temp E_pair E_mol TotEng Press Volume 
    3580     3882.627   -7592.9129            0   -5537.7596    125340.68    28517.194 
    3600    3900.2942    -7606.359            0   -5541.8541    133168.21    28517.156 
Loop time of 1.72554 on 4 procs for 20 steps withrun 20 pre nrrun 20 pre no post no
Step Temp E_pair E_mol TotEng Press Volume 
    3600    3900.2942    -7606.359            0   -5541.8541    133168.21    28517.156 
    3620    3945.7316   -7634.8571            0   -5546.3013    145845.19    28517.115 
Loop time of 1.72919 on 4 procs for 20 steps withrun 20 pre rurun 20 pre no post no
Step Temp E_pair E_mol TotEng Press Volume 
    3620    3945.7316   -7634.8571            0   -5546.3013    145845.19    28517.115 
    3640    3901.2846   -7615.7663            0   -5550.7371    149217.62    28517.073 
Loop time of 1.73115 on 4 procs for 20 steps withrun 20 pre rurun 20 pre no post no
Step Temp E_pair E_mol TotEng Press Volume 
    3640    3901.2846   -7615.7663            0   -5550.7371    149217.62    28517.073 
    3660    3941.4299   -7642.6104            0   -5556.3315    153985.92     28517.03 
Loop time of 1.72934 on 4 procs for 20 steps withrun 20 pre rurun 20 pre no post no
Step Temp E_pair E_mol TotEng Press Volume 
    3660    3941.4299   -7642.6104            0   -5556.3315    153985.92     28517.03 
    3680    3836.2997   -7589.4459            0   -5558.8146    143415.73    28516.986 
Loop time of 1.70917 on 4 procs for 20 steps withrun 20 pre rurun 20 pre no post no
Step Temp E_pair E_mol TotEng Press Volume 
    3680    3836.2997   -7589.4459            0   -5558.8146    143415.73    28516.986 
    3700    3899.3394   -7628.9563            0   -5564.9568    138042.53    28516.942 
Loop time of 1.69915 on 4 procs for 20 steps witrun 20 pre nrurun 20 pre no post no
Step Temp E_pair E_mol TotEng Press Volume 
    3700    3899.3394   -7628.9563            0   -5564.9568    138042.53    28516.942 
    3720    3881.3989   -7622.1305            0   -5567.6273    141694.98    28516.895 
Loop time of 1.70506 on 4 procs for 20 steps witrun 20 pre nrurun 20 pre no post no
Step Temp E_pair E_mol TotEng Press Volume 
    3720    3881.3989   -7622.1305            0   -5567.6273    141694.98    28516.895 
    3740    3888.3915   -7632.0315            0    -5573.827    145518.69    28516.846 
Loop time of 1.712 on 4 procs for 20 steps with run 20 pre nrun 20 pre no post no
Step Temp E_pair E_mol TotEng Press Volume 
    3740    3888.3915   -7632.0315            0    -5573.827    145518.69    28516.846 
    3760    3824.1821   -7601.4286            0   -5577.2114    140445.22    28516.796 
Loop time of 1.71234 on 4 procs for 20 steps with run 20 pre nrun 20 pre no post no
Step Temp E_pair E_mol TotEng Press Volume 
    3760    3824.1821   -7601.4286            0   -5577.2114    140445.22    28516.796 
    3780     3795.924   -7589.2746            0    -5580.015    147214.46    28516.745 
Loop time of 1.69137 on 4 procs for 20 steps with run 20 pre nrun 20 pre no post no
Step Temp E_pair E_mol TotEng Press Volume 
    3780     3795.924   -7589.2746            0    -5580.015    147214.46    28516.745 
    3800    3924.5495   -7664.8977            0    -5587.554     142476.6    28516.693 
Loop time of 1.69198 on 4 procs for 20 steps with run 20 pre nrun 20 pre no post no
Step Temp E_pair E_mol TotEng Press Volume 
    3800    3924.5495   -7664.8977            0    -5587.554     142476.6    28516.693 
    3820    4000.2904   -7708.8496            0   -5591.4147    141396.17    28516.641 
Loop time of 1.70579 on 4 procs for 20 steps with run 20 pre nrun 20 pre no post no
Step Temp E_pair E_mol TotEng Press Volume 
    3820    4000.2904   -7708.8496            0   -5591.4147    141396.17    28516.641 
    3840    3817.1659   -7614.2071            0   -5593.7037    130407.83    28516.587 
Loop time of 1.70974 on 4 procs for 20 steps with run 20 pre nrun 20 pre no post no
Step Temp E_pair E_mol TotEng Press Volume 
    3840    3817.1659   -7614.2071            0   -5593.7037    130407.83    28516.587 
    3860    3859.0744   -7640.5427            0   -5597.8563    144961.07    28516.529 
Loop time of 1.70922 on 4 procs for 20 steps with run 20 pre rrun 20 pre no post no
Step Temp E_pair E_mol TotEng Press Volume 
    3860    3859.0744   -7640.5427            0   -5597.8563    144961.07    28516.529 
    3880    3879.7573   -7656.5159            0   -5602.8817    138945.44     28516.47 
Loop time of 1.70412 on 4 procs for 20 steps with run 20 prerurun 20 pre no post no
Step Temp E_pair E_mol TotEng Press Volume 
    3880    3879.7573   -7656.5159            0   -5602.8817    138945.44     28516.47 
    3900    3880.5835   -7662.3852            0   -5608.3136    152633.01     28516.41 
Loop time of 1.71861 on 4 procs for 20 steps witrun 20 pre nrurun 20 pre no post no
Step Temp E_pair E_mol TotEng Press Volume 
    3900    3880.5835   -7662.3852            0   -5608.3136    152633.01     28516.41 
    3920     3822.595   -7632.4224            0   -5609.0453    136731.86    28516.348 
Loop time of 1.72725 on 4 procs for 20 steps witrun 20 pre nrurun 20 pre no post no
Step Temp E_pair E_mol TotEng Press Volume 
    3920     3822.595   -7632.4224            0   -5609.0453    136731.86    28516.348 
    3940    3819.0448   -7637.0715            0   -5615.5736    152732.42    28516.285 
Loop time of 1.71231 on 4 procs for 20 steps witrun 20 pre nrurun 20 pre no post no
Step Temp E_pair E_mol TotEng Press Volume 
    3940    3819.0448   -7637.0715            0   -5615.5736    152732.42    28516.285 
    3960     3816.641   -7639.1113            0   -5618.8858    127395.75     28516.22 
Loop time of 1.7165 on 4 procs for 20 steps withrun 20 pre nrrun 20 pre no post no
Step Temp E_pair E_mol TotEng Press Volume 
    3960     3816.641   -7639.1113            0   -5618.8858    127395.75     28516.22 
    3980    3825.3697   -7646.3727            0   -5621.5269    132728.85    28516.153 
Loop time of 1.71749 on 4 procs for 20 steps withrun 20 pre nrrun 20 pre no post no
Step Temp E_pair E_mol TotEng Press Volume 
    3980    3825.3697   -7646.3727            0   -5621.5269    132728.85    28516.153 
    4000    3867.8133   -7673.7855            0   -5626.4734     137006.2    28516.084 
Loop time of 1.71933 on 4 procs for 20 steps withrun 20 pre nrrun 20 pre no post no
Step Temp E_pair E_mol TotEng Press Volume 
    4000    3867.8133   -7673.7855            0   -5626.4734     137006.2    28516.084 
    4020    3818.7699   -7651.9877            0   -5630.6353    149858.24    28516.012 
Loop time of 1.69817 on 4 procs for 20 steps withrun 20 pre nrrun 20 pre no post no
Step Temp E_pair E_mol TotEng Press Volume 
    4020    3818.7699   -7651.9877            0   -5630.6353    149858.24    28516.012 
    4040    3857.3218   -7676.0006            0   -5634.2419    135648.94    28515.938 
Loop time of 1.6938 on 4 procs for 20 steps with run 20 pre nrun 20 pre no post no
Step Temp E_pair E_mol TotEng Press Volume 
    4040    3857.3218   -7676.0006            0   -5634.2419    135648.94    28515.938 
    4060    3852.8626   -7676.8069            0   -5637.4086    137181.86    28515.861 
Loop time of 1.68604 on 4 procs for 20 steps with run 20 pre rrun 20 pre no post no
Step Temp E_pair E_mol TotEng Press Volume 
    4060    3852.8626   -7676.8069            0   -5637.4086    137181.86    28515.861 
    4080    3840.6557    -7674.446            0   -5641.5089    144123.21    28515.783 
Loop time of 1.6915 on 4 procs for 20 steps with 4run 20 pre run 20 pre no post no
Step Temp E_pair E_mol TotEng Press Volume 
    4080    3840.6557    -7674.446            0   -5641.5089    144123.21    28515.783 
    4100    3822.7124   -7669.1145            0   -5645.6752    135661.86    28515.702 
Loop time of 1.6946 on 4 procs for 20 steps with 40run 20 prerun 20 pre no post no
Step Temp E_pair E_mol TotEng Press Volume 
    4100    3822.7124   -7669.1145            0   -5645.6752    135661.86    28515.702 
    4120    3822.8977   -7672.1591            0   -5648.6218    144226.59     28515.62 
Loop time of 1.69392 on 4 procs for 20 steps with 40run 20 prerun 20 pre no post no
Step Temp E_pair E_mol TotEng Press Volume 
    4120    3822.8977   -7672.1591            0   -5648.6218    144226.59     28515.62 
    4140    3732.0504   -7626.9738            0   -5651.5238    133016.26    28515.535 
Loop time of 1.69633 on 4 procs for 20 steps with 40run 20 prerun 20 pre no post no
Step Temp E_pair E_mol TotEng Press Volume 
    4140    3732.0504   -7626.9738            0   -5651.5238    133016.26    28515.535 
    4160    3766.1196   -7649.2821            0   -5655.7986    138174.25    28515.448 
Loop time of 1.70041 on 4 procs for 20 steps with 40run 20 prerun 20 pre no post no
Step Temp E_pair E_mol TotEng Press Volume 
    4160    3766.1196   -7649.2821            0   -5655.7986    138174.25    28515.448 
    4180    3803.2471    -7673.215            0   -5660.0791    140548.39    28515.359 
Loop time of 1.69876 on 4 procs for 20 steps with 40run 20 prerun 20 pre no post no
Step Temp E_pair E_mol TotEng Press Volume 
    4180    3803.2471    -7673.215            0   -5660.0791    140548.39    28515.359 
    4200    3755.7451   -7649.2184            0   -5661.2264     136442.7    28515.267 
Loop time of 1.70668 on 4 procs for 20 steps with 40run 20 prerun 20 pre no post no
Step Temp E_pair E_mol TotEng Press Volume 
    4200    3755.7451   -7649.2184            0   -5661.2264     136442.7    28515.267 
    4220    3829.5685   -7693.4544            0   -5666.3861     139349.7    28515.173 
Loop time of 1.70217 on 4 procs for 20 steps with 40run 20 prerun 20 pre no post no
Step Temp E_pair E_mol TotEng Press Volume 
    4220    3829.5685   -7693.4544            0   -5666.3861     139349.7    28515.173 
    4240    3805.5167   -7684.0045            0   -5669.6673    141620.32    28515.075 
Loop time of 1.6947 on 4 procs for 20 steps with 409run 20 prrun 20 pre no post no
Step Temp E_pair E_mol TotEng Press Volume 
    4240    3805.5167   -7684.0045            0   -5669.6673    141620.32    28515.075 
    4260    3855.6416   -7715.2141            0   -5674.3448    131875.42    28514.975 
Loop time of 1.70846 on 4 procs for 20 steps with 409run 20 prrun 20 pre no post no
Step Temp E_pair E_mol TotEng Press Volume 
    4260    3855.6416   -7715.2141            0   -5674.3448    131875.42    28514.975 
    4280    3750.4786    -7661.052            0   -5675.8476    120757.28    28514.872 
Loop time of 1.70596 on 4 procs for 20 steps with 409run 20 prrun 20 pre no post no
Step Temp E_pair E_mol TotEng Press Volume 
    4280    3750.4786    -7661.052            0   -5675.8476    120757.28    28514.872 
    4300    3735.9707   -7656.7298            0   -5679.2048    127472.41    28514.763 
Loop time of 1.71079 on 4 procs for 20 steps with 409run 20 prrun 20 pre no post no
Step Temp E_pair E_mol TotEng Press Volume 
    4300    3735.9707   -7656.7298            0   -5679.2048    127472.41    28514.763 
    4320    3885.2408   -7742.3394            0   -5685.8025    129354.74    28514.651 
Loop time of 1.73732 on 4 procs for 20 steps with 409run 20 prrun 20 pre no post no
Step Temp E_pair E_mol TotEng Press Volume 
    4320    3885.2408   -7742.3394            0   -5685.8025    129354.74    28514.651 
    4340    3845.3861   -7723.3804            0   -5687.9395    114823.42    28514.533 
Loop time of 1.73187 on 4 procs for 20 steps with 409run 20 prrun 20 pre no post no
Step Temp E_pair E_mol TotEng Press Volume 
    4340    3845.3861   -7723.3804            0   -5687.9395    114823.42    28514.533 
    4360    3811.3207   -7709.6408            0   -5692.2314     127227.3    28514.411 
Loop time of 1.70382 on 4 procs for 20 steps with 40run 20 prerun 20 pre no post no
Step Temp E_pair E_mol TotEng Press Volume 
    4360    3811.3207   -7709.6408            0   -5692.2314     127227.3    28514.411 
    4380    3835.1688   -7725.8876            0   -5695.8549    121279.55    28514.284 
Loop time of 1.71158 on 4 procs for 20 steps with 40run 20 prerun 20 pre no post no
Step Temp E_pair E_mol TotEng Press Volume 
    4380    3835.1688   -7725.8876            0   -5695.8549    121279.55    28514.284 
    4400    3846.7153    -7735.257            0   -5699.1126    128805.43    28514.152 
Loop time of 1.71122 on 4 procs for 20 steps with 40run 20 prerun 20 pre no post no
Step Temp E_pair E_mol TotEng Press Volume 
    4400    3846.7153    -7735.257            0   -5699.1126    128805.43    28514.152 
    4420    3813.6598   -7720.7814            0   -5702.1339    118720.42    28514.015 
Loop time of 1.74304 on 4 procs for 20 steps with 40run 20 prerun 20 pre no post no
Step Temp E_pair E_mol TotEng Press Volume 
    4420    3813.6598   -7720.7814            0   -5702.1339    118720.42    28514.015 
    4440    3767.2097    -7699.299            0   -5705.2384    126042.31    28513.873 
Loop time of 1.72063 on 4 procs for 20 steps with 40run 20 prerun 20 pre no post no
Step Temp E_pair E_mol TotEng Press Volume 
    4440    3767.2097    -7699.299            0   -5705.2384    126042.31    28513.873 
    4460    3786.4147   -7713.8272            0    -5709.601    125281.77    28513.726 
Loop time of 1.71492 on 4 procs for 20 steps with 4096 atoms

run 20 pre no post no
Step Temp E_pair E_mol TotEng Press Volume 
    4460    3786.4147   -7713.8272            0    -5709.601    125281.77    28513.726 
    4480    3860.5118   -7757.3616            0   -5713.9143    125797.18    28513.574 
Loop time of 1.70631 on 4 procs for 20 steps with 4096 atoms

run 20 pre no post no
Step Temp E_pair E_mol TotEng Press Volume 
    4480    3860.5118   -7757.3616            0   -5713.9143    125797.18    28513.574 
    4500     3842.133   -7751.4645            0   -5717.7455    127845.96    28513.418 
Loop time of 1.73576 on 4 procs for 20 steps with 4096 atoms

run 20 pre no post no
Step Temp E_pair E_mol TotEng Press Volume 
    4500     3842.133   -7751.4645            0   -5717.7455    127845.96    28513.418 
    4520    3821.0561   -7742.5842            0   -5720.0216    128955.42    28513.257 
Loop time of 1.72919 on 4 procs for 20 steps with 4096 atoms

run 20 pre no post no
Step Temp E_pair E_mol TotEng Press Volume 
    4520    3821.0561   -7742.5842            0   -5720.0216    128955.42    28513.257 
    4540    3698.8447   -7679.7998            0   -5721.9262    124746.92    28513.093 
Loop time of 1.72061 on 4 procs for 20 steps with 4096 atoms

run 20 pre no post no
Step Temp E_pair E_mol TotEng Press Volume 
    4540    3698.8447   -7679.7998            0   -5721.9262    124746.92    28513.093 
    4560     3801.727   -7738.2995            0   -5725.9682    127043.97    28512.925 
Loop time of 1.72511 on 4 procs for 20 steps with 4096 atoms

run 20 pre no post no
Step Temp E_pair E_mol TotEng Press Volume 
    4560     3801.727   -7738.2995            0   -5725.9682    127043.97    28512.925 
    4580    3800.0992   -7739.9658            0   -5728.4962    144931.94    28512.753 
Loop time of 1.72957 on 4 procs for 20 steps with 4096 atoms

run 20 pre no post no
Step Temp E_pair E_mol TotEng Press Volume 
    4580    3800.0992   -7739.9658            0   -5728.4962    144931.94    28512.753 
    4600    3727.1975   -7703.1752            0   -5730.2939    132220.91    28512.579 
Loop time of 1.72429 on 4 procs for 20 steps with 4096 atoms

run 20 pre no post no
Step Temp E_pair E_mol TotEng Press Volume 
    4600    3727.1975   -7703.1752            0   -5730.2939    132220.91    28512.579 
    4620    3692.1685   -7687.6415            0   -5733.3018    139917.95    28512.402 
Loop time of 1.70735 on 4 procs for 20 steps with 4096 atoms

run 20 pre no post no
Step Temp E_pair E_mol TotEng Press Volume 
    4620    3692.1685   -7687.6415            0   -5733.3018    139917.95    28512.402 
    4640    3812.4542   -7756.0829            0   -5738.0736    134138.45    28512.223 
Loop time of 1.70289 on 4 procs for 20 steps with 4096 atoms

run 20 pre no post no
Step Temp E_pair E_mol TotEng Press Volume 
    4640    3812.4542   -7756.0829            0   -5738.0736    134138.45    28512.223 
    4660    3729.8057   -7712.6562            0   -5738.3943    135644.14     28512.04 
Loop time of 1.69982 on 4 procs for 20 steps with 4096 atoms

run 20 pre no post no
Step Temp E_pair E_mol TotEng Press Volume 
    4660    3729.8057   -7712.6562            0   -5738.3943    135644.14     28512.04 
    4680    3715.4204   -7709.2534            0    -5742.606    141383.27    28511.854 
Loop time of 1.69614 on 4 procs for 20 steps with 4096 atoms

run 20 pre no post no
Step Temp E_pair E_mol TotEng Press Volume 
    4680    3715.4204   -7709.2534            0    -5742.606    141383.27    28511.854 
    4700    3724.4048   -7717.3785            0   -5745.9754    129173.83    28511.665 
Loop time of 1.69139 on 4 procs for 20 steps with 4096 atoms
rrun 20 pre no post no
Step Temp E_pair E_mol TotEng Press Volume 
    4700    3724.4048   -7717.3785            0   -5745.9754    129173.83    28511.665 
    4720     3799.273    -7760.786            0   -5749.7537    134862.47    28511.474 
Loop time of 1.687 on 4 procs for 20 steps with 4096 atoms

run 20 pre no post no
Step Temp E_pair E_mol TotEng Press Volume 
    4720     3799.273    -7760.786            0   -5749.7537    134862.47    28511.474 
    4740    3760.1383    -7741.356            0   -5751.0385    133585.55    28511.279 
Loop time of 1.69972 on 4 procs for 20 steps with 4096 atoms

run 20 pre no post no
Step Temp E_pair E_mol TotEng Press Volume 
    4740    3760.1383    -7741.356            0   -5751.0385    133585.55    28511.279 
    4760    3744.5553   -7735.6115            0   -5753.5424    136928.43    28511.082 
Loop time of 1.71271 on 4 procs for 20 steps with 4096 atoms

run 20 pre no post no
Step Temp E_pair E_mol TotEng Press Volume 
    4760    3744.5553   -7735.6115            0   -5753.5424    136928.43    28511.082 
    4780    3726.7969   -7727.3251            0   -5754.6559    140310.49    28510.882 
Loop time of 1.7209 on 4 procs for 20 steps with 4096 atoms

run 20 pre no post no
Step Temp E_pair E_mol TotEng Press Volume 
    4780    3726.7969   -7727.3251            0   -5754.6559    140310.49    28510.882 
    4800     3702.757   -7718.4037            0   -5758.4593    132528.63     28510.68 
Loop time of 1.7031 on 4 procs for 20 steps with 4096 atoms

run 20 pre no post no
Step Temp E_pair E_mol TotEng Press Volume 
    4800     3702.757   -7718.4037            0   -5758.4593    132528.63     28510.68 
    4820    3713.6062   -7726.2069            0   -5760.5198    122813.15    28510.474 
Loop time of 1.69915 on 4 procs for 20 steps with 4096 atoms

run 20 pre no post no
Step Temp E_pair E_mol TotEng Press Volume 
    4820    3713.6062   -7726.2069            0   -5760.5198    122813.15    28510.474 
    4840    3752.3275   -7750.0138            0   -5763.8307    137780.06    28510.266 
Loop time of 1.71535 on 4 procs for 20 steps with 4096 atoms

run 20 pre no post no
Step Temp E_pair E_mol TotEng Press Volume 
    4840    3752.3275   -7750.0138            0   -5763.8307    137780.06    28510.266 
    4860    3706.7836   -7725.6837            0    -5763.608    123534.82    28510.054 
Loop time of 1.6993 on 4 procs for 20 steps with 4096 atoms

run 20 pre no post no
Step Temp E_pair E_mol TotEng Press Volume 
    4860    3706.7836   -7725.6837            0    -5763.608    123534.82    28510.054 
    4880    3741.3478   -7747.9135            0   -5767.5422    135006.86    28509.838 
Loop time of 1.70095 on 4 procs for 20 steps with 4096 atoms

run 20 pre no post no
Step Temp E_pair E_mol TotEng Press Volume 
    4880    3741.3478   -7747.9135            0   -5767.5422    135006.86    28509.838 
    4900    3742.3374   -7750.4754            0   -5769.5803    130440.46    28509.619 
Loop time of 1.69454 on 4 procs for 20 steps with 4096 atrun 2run 20 pre no post no
Step Temp E_pair E_mol TotEng Press Volume 
    4900    3742.3374   -7750.4754            0   -5769.5803    130440.46    28509.619 
    4920    3672.5506   -7714.9884            0   -5771.0328    137648.55    28509.395 
Loop time of 1.70183 on 4 procs for 20 steps with 4096 atrun 2run 20 pre no post no
Step Temp E_pair E_mol TotEng Press Volume 
    4920    3672.5506   -7714.9884            0   -5771.0328    137648.55    28509.395 
    4940    3707.8416   -7736.9605            0   -5774.3247    143759.46    28509.168 
Loop time of 1.71129 on 4 procs for 20 steps with 4096 arun 20run 20 pre no post no
Step Temp E_pair E_mol TotEng Press Volume 
    4940    3707.8416   -7736.9605            0   -5774.3247    143759.46    28509.168 
    4960    3680.8565    -7723.636            0    -5775.284    124731.83     28508.94 
Loop time of 1.70997 on 4 procs for 20 steps with 4096 arun 20run 20 pre no post no
Step Temp E_pair E_mol TotEng Press Volume 
    4960    3680.8565    -7723.636            0    -5775.284    124731.83     28508.94 
    4980     3741.329   -7758.7503            0   -5778.3889    129935.87    28508.708 
Loop time of 1.71924 on 4 procs for 20 steps with 4096 arun 20run 20 pre no post no
Step Temp E_pair E_mol TotEng Press Volume 
    4980     3741.329   -7758.7503            0   -5778.3889    129935.87    28508.708 
    5000    3720.9826   -7749.2756            0    -5779.684    119334.84    28508.472 
Loop time of 1.70204 on 4 procs for 20 steps with 4096 arun 20run 20 pre no post no
Step Temp E_pair E_mol TotEng Press Volume 
    5000    3720.9826   -7749.2756            0    -5779.684    119334.84    28508.472 
    5020    3756.9487   -7772.7257            0   -5784.0965    122723.34     28508.23 
Loop time of 1.71109 on 4 procs for 20 steps with 4096 arun 20run 20 pre no post no
Step Temp E_pair E_mol TotEng Press Volume 
    5020    3756.9487   -7772.7257            0   -5784.0965    122723.34     28508.23 
    5040      3797.91   -7796.0623            0   -5785.7515    125874.28    28507.983 
Loop time of 1.69629 on 4 procs for 20 steps with 4096 arun 20run 20 pre no post no
Step Temp E_pair E_mol TotEng Press Volume 
    5040      3797.91   -7796.0623            0   -5785.7515    125874.28    28507.983 
    5060    3775.5377   -7786.5774            0   -5788.1086     128499.4    28507.732 
Loop time of 1.70246 on 4 procs for 20 steps with 4096 arun 20run 20 pre no post no
Step Temp E_pair E_mol TotEng Press Volume 
    5060    3775.5377   -7786.5774            0   -5788.1086     128499.4    28507.732 
    5080    3760.3986   -7780.2201            0   -5789.7647    146183.24    28507.477 
Loop time of 1.69415 on 4 procs for 20 steps with 4096 arun 20run 20 pre no porun 20 pre no post no
Step Temp E_pair E_mol TotEng Press Volume 
    5080    3729.9457   -7758.9796            0   -5784.6436    132305.58    28509.076 
    5100     3762.299     -7779.74            0   -5788.2788    129413.35    28508.763 
Loop time of 1.70523 on 4 procs for 20 srun 20run 20 pre no post no
Step Temp E_pair E_mol TotEng Press Volume 
    5100    3809.2543   -7809.9972            0   -5793.6816    138359.08    28507.221 
    5120    3724.3875    -7764.691            0   -5793.2971    117899.83    28506.962 
Loop time of 1.71613 on 4 procs for 20 steps with 4096 arun 20run 20 pre no post no
Step Temp E_pair E_mol TotEng Press Volume 
    5120    3724.3875    -7764.691            0   -5793.2971    117899.83    28506.962 
    5140     3700.309   -7755.6532            0   -5797.0046    120269.82    28506.699 
Loop time of 1.70954 on 4 procs for 20 steps with 4096 arun 20run 20 pre no post no
Step Temp E_pair E_mol TotEng Press Volume 
    5140     3700.309   -7755.6532            0   -5797.0046    120269.82    28506.699 
    5160    3719.0061   -7766.6404            0    -5798.095    123565.32     28506.43 
Loop time of 1.6996 on 4 procs for 20 steps with 4096 atrun 2run 20 pre no post no
Step Temp E_pair E_mol TotEng Press Volume 
[...]
Pair    | 0          | 0          | 0          |   0.0 |  0.00
Neigh   | 0          | 0          | 0          |   0.0 |  0.00
Comm    | 0          | 0          | 0          |   0.0 |  0.00
Output  | 0          | 0          | 0          |   0.0 |  0.00
Modify  | 0          | 0          | 0          |   0.0 |  0.00
Other   |            | 1.135e-06  |            |       |100.00

Nlocal:    1024 ave 1049 max 985 min
Histogram: 1 0 0 0 0 1 0 0 1 1
Nghost:    3673.5 ave 3705 max 3656 min
Histogram: 1 1 0 1 0 0 0 0 0 1
Neighs:    0 ave 0 max 0 min
Histogram: 4 0 0 0 0 0 0 0 0 0
FullNghs:  147070 ave 154496 max 135882 min
Histogram: 1 0 0 0 1 0 0 0 0 2

Total # of neighbors = 588278
Ave neighs/atom = 143.623
Neighbor list builds = 2
Dangerous builds = 2
Total wall time: 4:18:40
      0   -6407.0993    161918.43     28256.77 
Loop time of 2.52e-06 on 4 procs for 0 steps with 4096 atoms

138.9% CPU use with 4 MPI tasks x no OpenMP threads

MPI task timing breakdown:
Section |  min time  |  avg time  |  max time  |%varavg| %total
---------------------------------------------------------------
Pair    | 0          | 0          | 0          |   0.0 |  0.00
Neigh   | 0          | 0          | 0          |   0.0 |  0.00
Comm    | 0          | 0          | 0          |   0.0 |  0.00
Output  | 0          | 0          | 0          |   0.0 |  0.00
Modify  | 0          | 0          | 0          |   0.0 |  0.00
Other   |            | 2.52e-06   |            |       |100.00

Nlocal:    1024 ave 1048 max 1003 min
Histogram: 2 0 0 0 0 0 0 0 1 1
Nghost:    3733.25 ave 3738 max 3725 min
Histogram: 1 0 0 0 0 1 0 0 0 2
Neighs:    0 ave 0 max 0 min
Histogram: 4 0 0 0 0 0 0 0 0 0
FullNghs:  146862 ave 153048 max 140626 min
Histogram: 2 0 0 0 0 0 0 0 0 2

Total # of neighbors = 587450
Ave neighs/atom = 143.42
Neighbor list builds = 57
Dangerous builds = 56
Total wall time: 4:18:40
766            0   -6419.5874    164008.27    28309.923 
     960    3721.9526     -8389.62            0    -6419.515    162531.11    28310.996 
Loop time of 1.72394 on 4 procs for 20 steps with 4096 atoms

run 20 pre no post no
Step Temp E_pair E_mol TotEng Press Volume 
     960    3721.9526     -8389.62            0    -6419.515    162531.11    28310.996 
     980    3786.7325   -8422.8218            0   -6418.4274    156794.33    28312.071 
Loop time of 1.70056 on 4 procs for 20 steps with 4096 atoms

run 0 pre no post yes
Step Temp E_pair E_mol TotEng Press Volume 
     980    3786.7325   -8422.8218            0   -6418.4274    156794.33    28312.071 
Loop time of 9.29499e-07 on 4 procs for 0 steps with 4096 atoms

215.2% CPU use with 4 MPI tasks x no OpenMP threads

MPI task timing breakdown:
Section |  min time  |  avg time  |  max time  |%varavg| %total
---------------------------------------------------------------
Pair    | 0          | 0          | 0          |   0.0 |  0.00
Neigh   | 0          | 0          | 0          |   0.0 |  0.00
Comm    | 0          | 0          | 0          |   0.0 |  0.00
Output  | 0          | 0          | 0          |   0.0 |  0.00
Modify  | 0          | 0          | 0          |   0.0 |  0.00
Other   |            | 9.295e-07  |            |       |100.00

Nlocal:    1024 ave 1049 max 1008 min
Histogram: 2 0 0 0 1 0 0 0 0 1
Nghost:    3688 ave 3711 max 3672 min
Histogram: 2 0 0 0 0 0 1 0 0 1
Neighs:    0 ave 0 max 0 min
Histogram: 4 0 0 0 0 0 0 0 0 0
FullNghs:  146572 ave 154347 max 140809 min
Histogram: 1 1 0 0 0 1 0 0 0 1

Total # of neighbors = 586290
Ave neighs/atom = 143.137
Neighbor list builds = 97
Dangerous builds = 96
write_dump all xyz pool/xyz.25__14_1
read_dump pool/xyz.24__60_1 0 x y z box no format xyz
  orthogonal box = (0.0346068 0.0346068 0.0346068) to (30.5129 30.5129 30.5129)
  4096 atoms before read
  4096 atoms in snapshot
  0 atoms purged
  4096 atoms replaced
  0 atoms trimmed
  0 atoms added
  4096 atoms after read
velocity all create 3700 2051436640 dist gaussian
run 0 pre yes post no
Per MPI rank memory allocation (min/avg/max) = 4.351 | 4.351 | 4.352 Mbytes
Step Temp E_pair E_mol TotEng Press Volume 
       0         3700   -8413.3253            0   -6454.8402    143087.78    28312.071 
Loop time of 1.357e-06 on 4 procs for 0 steps with 4096 atoms

run 20 pre no post no
Step Temp E_pair E_mol TotEng Press Volume 
       0         3700   -8413.3253            0   -6454.8402    143087.78    28312.071 
      20    3679.9845   -8400.2598            0   -6452.3693    158893.86    28313.145 
Loop time of 1.6285 on 4 procs for 20 steps with 4096 atoms

run 20 pre no post no
Step Temp E_pair E_mol TotEng Press Volume 
      20    3679.9845   -8400.2598            0   -6452.3693    158893.86    28313.145 
      40    3671.7096   -8395.2714            0    -6451.761    155006.19    28314.219 
Loop time of 1.63292 on 4 procs for 20 steps with 4096 atoms

run 20 pre no post no
Step Temp E_pair E_mol TotEng Press Volume 
      40    3671.7096   -8395.2714            0    -6451.761    155006.19    28314.219 
      60    3652.3373   -8385.0898            0   -6451.8335    146464.43    28315.292 
Loop time of 1.63803 on 4 procs for 20 steps with 4096 atoms

run 20 pre no post no
Step Temp E_pair E_mol TotEng Press Volume 
      60    3652.3373   -8385.0898            0   -6451.8335    146464.43    28315.292 
      80    3687.6413   -8403.6114            0    -6451.668    147410.75    28316.364 
Loop time of 1.65561 on 4 procs for 20 steps with 4096 atoms

run 20 pre no post no
Step Temp E_pair E_mol TotEng Press Volume 
      80    3687.6413   -8403.6114            0    -6451.668    147410.75    28316.364 
     100    3735.4893   -8429.3784            0   -6452.1081    146433.81    28317.435 
Loop time of 1.65106 on 4 procs for 20 steps with 4096 atoms

run 20 pre no post no
Step Temp E_pair E_mol TotEng Press Volume 
     100    3735.4893   -8429.3784            0   -6452.1081    146433.81    28317.435 
     120    3723.6273    -8423.511            0   -6452.5195    146490.53    28318.503 
Loop time of 1.64584 on 4 procs for 20 steps with 4096 atoms

run 20 pre no post no
Step Temp E_pair E_mol TotEng Press Volume 
     120    3723.6273    -8423.511            0   -6452.5195    146490.53    28318.503 
     140     3744.842   -8433.9513            0   -6451.7304    151477.72     28319.57 
Loop time of 1.64565 on 4 procs for 20 steps with 4096 atoms

run 20 pre no post no
Step Temp E_pair E_mol TotEng Press Volume 
     140     3744.842   -8433.9513            0   -6451.7304    151477.72     28319.57 
     160     3729.351   -8426.5068            0   -6452.4856     147380.1    28320.636 
Loop time of 1.65299 on 4 procs for 20 steps with 4096 atoms

run 0 pre no post yes
Step Temp E_pair E_mol TotEng Press Volume 
     160     3729.351   -8426.5068            0   -6452.4856     147380.1    28320.636 
Loop time of 1.40025e-06 on 4 procs for 0 steps with 4096 atoms

160.7% CPU use with 4 MPI tasks x no OpenMP threads

MPI task timing breakdown:
Section |  min time  |  avg time  |  max time  |%varavg| %total
---------------------------------------------------------------
Pair    | 0          | 0          | 0          |   0.0 |  0.00
Neigh   | 0          | 0          | 0          |   0.0 |  0.00
Comm    | 0          | 0          | 0          |   0.0 |  0.00
Output  | 0          | 0          | 0          |   0.0 |  0.00
Modify  | 0          | 0          | 0          |   0.0 |  0.00
Other   |            | 1.4e-06    |            |       |100.00

Nlocal:    1024 ave 1045 max 1015 min
Histogram: 2 1 0 0 0 0 0 0 0 1
Nghost:    3726.75 ave 3732 max 3714 min
Histogram: 1 0 0 0 0 0 0 0 1 2
Neighs:    0 ave 0 max 0 min
Histogram: 4 0 0 0 0 0 0 0 0 0
FullNghs:  146526 ave 150956 max 144354 min
Histogram: 2 0 1 0 0 0 0 0 0 1

Total # of neighbors = 586104
Ave neighs/atom = 143.092
Neighbor list builds = 15
Dangerous builds = 14
Total wall time: 4:18:39

    1100    3721.1481   -8472.6973            0    -6503.018     149480.6    28140.322 
    1120    3702.6316   -8462.3552            0   -6502.4771    161400.82    28141.453 
Loop time of 1.64651 on 4 procs for 20 steps with 4096 atoms

run 20 pre no post no
Step Temp E_pair E_mol TotEng Press Volume 
    1120    3702.6316   -8462.3552            0   -6502.4771    161400.82    28141.453 
    1140    3745.2316   -8485.8024            0   -6503.3753    147255.26    28142.585 
Loop time of 1.66493 on 4 procs for 20 steps with 4096 atoms

run 20 pre no post no
Step Temp E_pair E_mol TotEng Press Volume 
    1140    3745.2316   -8485.8024            0   -6503.3753    147255.26    28142.585 
    1160    3764.2771   -8496.6853            0   -6504.1771    163530.34    28143.717 
Loop time of 1.67837 on 4 procs for 20 steps with 4096 atoms

run 20 pre no post no
Step Temp E_pair E_mol TotEng Press Volume 
    1160    3764.2771   -8496.6853            0   -6504.1771    163530.34    28143.717 
    1180    3749.2972   -8489.6146            0   -6505.0355    158743.61    28144.853 
Loop time of 1.68558 on 4 procs for 20 steps with 4096 atoms

run 20 pre no post no
Step Temp E_pair E_mol TotEng Press Volume 
    1180    3749.2972   -8489.6146            0   -6505.0355    158743.61    28144.853 
    1200    3751.1411   -8492.6422            0   -6507.0872    153912.95     28145.99 
Loop time of 1.68961 on 4 procs for 20 steps with 4096 atoms

run 20 pre no post no
Step Temp E_pair E_mol TotEng Press Volume 
    1200    3751.1411   -8492.6422            0   -6507.0872    153912.95     28145.99 
    1220    3703.5821   -8465.2797            0   -6504.8985    156469.69    28147.128 
Loop time of 1.68346 on 4 procs for 20 steps with 4096 atoms

run 20 pre no post no
Step Temp E_pair E_mol TotEng Press Volume 
    1220    3703.5821   -8465.2797            0   -6504.8985    156469.69    28147.128 
    1240    3694.2979   -8462.3424            0   -6506.8755    145467.39    28148.266 
Loop time of 1.68929 on 4 procs for 20 steps with 4096 atoms

run 20 pre no post no
Step Temp E_pair E_mol TotEng Press Volume 
    1240    3694.2979   -8462.3424            0   -6506.8755    145467.39    28148.266 
    1260    3680.7252     -8456.64            0   -6508.3574    152312.81    28149.405 
Loop time of 1.68778 on 4 procs for 20 steps with 4096 atoms

run 20 pre no post no
Step Temp E_pair E_mol TotEng Press Volume 
    1260    3680.7252     -8456.64            0   -6508.3574    152312.81    28149.405 
    1280    3696.0665   -8463.9605            0   -6507.5575    146235.26    28150.544 
Loop time of 1.67103 on 4 procs for 20 steps with 4096 atoms

run 20 pre no post no
Step Temp E_pair E_mol TotEng Press Volume 
    1280    3696.0665   -8463.9605            0   -6507.5575    146235.26    28150.544 
    1300    3772.5363   -8508.0506            0   -6511.1705    150249.18    28151.683 
Loop time of 1.64459 on 4 procs for 20 steps with 4096 atoms

run 20 pre no post no
Step Temp E_pair E_mol TotEng Press Volume 
    1300    3772.5363   -8508.0506            0   -6511.1705    150249.18    28151.683 
    1320    3708.4121   -8473.6378            0      -6510.7     147883.6    28152.822 
Loop time of 1.64461 on 4 procs for 20 steps with 4096 atoms

run 20 pre no post no
Step Temp E_pair E_mol TotEng Press Volume 
    1320    3708.4121   -8473.6378            0      -6510.7     147883.6    28152.822 
    1340    3724.4774   -8482.7386            0   -6511.2972    152225.21     28153.96 
Loop time of 1.6575 on 4 procs for 20 steps with 4096 atoms

run 20 pre no post no
Step Temp E_pair E_mol TotEng Press Volume 
    1340    3724.4774   -8482.7386            0   -6511.2972    152225.21     28153.96 
    1360    3730.8105   -8487.3022            0   -6512.5085    149735.88    28155.098 
Loop time of 1.68131 on 4 procs for 20 steps with 4096 atoms

run 20 pre no post no
Step Temp E_pair E_mol TotEng Press Volume 
    1360    3730.8105   -8487.3022            0   -6512.5085    149735.88    28155.098 
    1380    3734.3835   -8491.3584            0   -6514.6734    145903.45    28156.237 
Loop time of 1.67588 on 4 procs for 20 steps with 4096 atoms

run 20 pre no post no
Step Temp E_pair E_mol TotEng Press Volume 
    1380    3734.3835   -8491.3584            0   -6514.6734    145903.45    28156.237 
    1400    3707.4979   -8478.3499            0    -6515.896    152042.38    28157.375 
Loop time of 1.68737 on 4 procs for 20 steps with 4096 atoms

run 20 pre no post no
Step Temp E_pair E_mol TotEng Press Volume 
    1400    3707.4979   -8478.3499            0    -6515.896    152042.38    28157.375 
    1420    3754.6278   -8504.6375            0   -6517.2368    152608.45    28158.514 
Loop time of 1.6814 on 4 procs for 20 steps with 4096 atoms

run 20 pre no post no
Step Temp E_pair E_mol TotEng Press Volume 
    1420    3754.6278   -8504.6375            0   -6517.2368    152608.45    28158.514 
    1440    3645.0409    -8447.378            0   -6517.9839    163023.85    28159.654 
Loop time of 1.69853 on 4 procs for 20 steps with 4096 atoms

run 20 pre no post no
Step Temp E_pair E_mol TotEng Press Volume 
    1440    3645.0409    -8447.378            0   -6517.9839    163023.85    28159.654 
    1460     3721.023   -8491.0227            0   -6521.4097    169892.52    28160.795 
Loop time of 1.70439 on 4 procs for 20 steps with 4096 atoms

run 20 pre no post no
Step Temp E_pair E_mol TotEng Press Volume 
    1460     3721.023   -8491.0227            0   -6521.4097    169892.52    28160.795 
    1480    3681.5067   -8470.4131            0   -6521.7169    148957.83     28161.94 
Loop time of 1.69105 on 4 procs for 20 steps with 4096 atoms

run 20 pre no post no
Step Temp E_pair E_mol TotEng Press Volume 
    1480    3681.5067   -8470.4131            0   -6521.7169    148957.83     28161.94 
    1500    3645.9806    -8453.217            0   -6523.3255    163326.93    28163.086 
Loop time of 1.67234 on 4 procs for 20 steps with 4096 atoms

run 20 pre no post no
Step Temp E_pair E_mol TotEng Press Volume 
    1500    3645.9806    -8453.217            0   -6523.3255    163326.93    28163.086 
    1520    3624.3174   -8443.4038            0   -6524.9791    163192.13    28164.234 
Loop time of 1.67795 on 4 procs for 20 steps with 4096 atoms

run 20 pre no post no
Step Temp E_pair E_mol TotEng Press Volume 
    1520    3624.3174   -8443.4038            0   -6524.9791    163192.13    28164.234 
    1540    3647.9412   -8456.1001            0   -6525.1708    163393.13    28165.383 
Loop time of 1.68455 on 4 procs for 20 steps with 4096 atoms

run 20 pre no post no
Step Temp E_pair E_mol TotEng Press Volume 
    1540    3647.9412   -8456.1001            0   -6525.1708    163393.13    28165.383 
    1560    3700.6077   -8488.3594            0   -6529.5526    156987.96    28166.535 
Loop time of 1.65709 on 4 procs for 20 steps with 4096 atoms

run 20 pre no post no
Step Temp E_pair E_mol TotEng Press Volume 
    1560    3700.6077   -8488.3594            0   -6529.5526    156987.96    28166.535 
    1580    3744.5348   -8514.6632            0    -6532.605     151633.4    28167.687 
Loop time of 1.66051 on 4 procs for 20 steps with 4096 atoms

run 20 pre no post no
Step Temp E_pair E_mol TotEng Press Volume 
    1580    3744.5348   -8514.6632            0    -6532.605     151633.4    28167.687 
    1600    3679.5641   -8481.3553            0   -6533.6874    149765.89    28168.839 
Loop time of 1.66297 on 4 procs for 20 steps with 4096 atoms

run 20 pre no post no
Step Temp E_pair E_mol TotEng Press Volume 
    1600    3679.5641   -8481.3553            0   -6533.6874    149765.89    28168.839 
    1620    3728.0931   -8511.8928            0   -6538.5375    151100.65    28169.991 
Loop time of 1.68366 on 4 procs for 20 steps with 4096 atoms

run 20 pre no post no
Step Temp E_pair E_mol TotEng Press Volume 
    1620    3728.0931   -8511.8928            0   -6538.5375    151100.65    28169.991 
    1640    3683.0766    -8490.066            0   -6540.5388    165963.29    28171.144 
Loop time of 1.67207 on 4 procs for 20 steps with 4096 atoms

run 20 pre no post no
Step Temp E_pair E_mol TotEng Press Volume 
    1640    3683.0766    -8490.066            0   -6540.5388    165963.29    28171.144 
    1660    3663.1399   -8481.5311            0   -6542.5568    161352.32      28172.3 
Loop time of 1.65145 on 4 procs for 20 steps with 4096 atoms

run 20 pre no post no
Step Temp E_pair E_mol TotEng Press Volume 
    1660    3663.1399   -8481.5311            0   -6542.5568    161352.32      28172.3 
    1680    3709.0812   -8509.0944            0   -6545.8024    177278.36    28173.458 
Loop time of 1.6684 on 4 procs for 20 steps with 4096 atoms

run 20 pre no post no
Step Temp E_pair E_mol TotEng Press Volume 
    1680    3709.0812   -8509.0944            0   -6545.8024    177278.36    28173.458 
    1700     3671.851   -8492.2531            0   -6548.6679    166661.81    28174.619 
Loop time of 1.7018 on 4 procs for 20 steps with 4096 atoms

run 20 pre no post no
Step Temp E_pair E_mol TotEng Press Volume 
    1700     3671.851   -8492.2531            0   -6548.6679    166661.81    28174.619 
    1720    3641.5712   -8478.8376            0   -6551.2801    179221.42    28175.783 
Loop time of 1.68595 on 4 procs for 20 steps with 4096 atoms

run 20 pre no post no
Step Temp E_pair E_mol TotEng Press Volume 
    1720    3641.5712   -8478.8376            0   -6551.2801    179221.42    28175.783 
    1740    3675.0703    -8499.378            0   -6554.0887    168331.53    28176.951 
Loop time of 1.68037 on 4 procs for 20 steps with 4096 atoms

run 20 pre no post no
Step Temp E_pair E_mol TotEng Press Volume 
    1740    3675.0703    -8499.378            0   -6554.0887    168331.53    28176.951 
    1760     3684.181    -8507.872            0   -6557.7602    162827.18    28178.123 
Loop time of 1.67556 on 4 procs for 20 steps with 4096 atoms

run 20 pre no post no
Step Temp E_pair E_mol TotEng Press Volume 
    1760     3684.181    -8507.872            0   -6557.7602    162827.18    28178.123 
    1780     3590.363   -8460.9008            0   -6560.4488    157023.61    28179.297 
Loop time of 1.67507 on 4 procs for 20 steps with 4096 atoms

run 20 pre no post no
Step Temp E_pair E_mol TotEng Press Volume 
    1780     3590.363   -8460.9008            0   -6560.4488    157023.61    28179.297 
    1800     3619.477   -8477.8701            0   -6562.0075    150072.36    28180.472 
Loop time of 1.65756 on 4 procs for 20 steps with 4096 atoms

run 20 pre no post no
Step Temp E_pair E_mol TotEng Press Volume 
    1800     3619.477   -8477.8701            0   -6562.0075    150072.36    28180.472 
    1820     3630.367   -8487.6117            0   -6565.9847     151137.2    28181.647 
Loop time of 1.66905 on 4 procs for 20 steps with 4096 atoms

run 0 pre no post yes
Step Temp E_pair E_mol TotEng Press Volume 
    1820     3630.367   -8487.6117            0   -6565.9847     151137.2    28181.647 
Loop time of 2.59025e-06 on 4 procs for 0 steps with 4096 atoms

144.8% CPU use with 4 MPI tasks x no OpenMP threads

MPI task timing breakdown:
Section |  min time  |  avg time  |  max time  |%varavg| %total
---------------------------------------------------------------
Pair    | 0          | 0          | 0          |   0.0 |  0.00
Neigh   | 0          | 0          | 0          |   0.0 |  0.00
Comm    | 0          | 0          | 0          |   0.0 |  0.00
Output  | 0          | 0          | 0          |   0.0 |  0.00
Modify  | 0          | 0          | 0          |   0.0 |  0.00
Other   |            | 2.59e-06   |            |       |100.00

Nlocal:    1024 ave 1042 max 1007 min
Histogram: 1 0 1 0 0 0 0 1 0 1
Nghost:    3692.25 ave 3709 max 3682 min
Histogram: 2 0 0 0 1 0 0 0 0 1
Neighs:    0 ave 0 max 0 min
Histogram: 4 0 0 0 0 0 0 0 0 0
FullNghs:  147022 ave 152462 max 142355 min
Histogram: 1 1 0 0 0 0 1 0 0 1

Total # of neighbors = 588086
Ave neighs/atom = 143.576
Neighbor list builds = 182
Dangerous builds = 182
Total wall time: 4:18:40
