4096
 Atoms. Timestep: 300
1 44.0816 30.8117 8.5875
1 46.89 17.4355 33.6388
1 21.2727 10.1379 24.8831
1 34.69 29.4927 18.748
1 7.05732 5.25389 46.2435
1 37.9618 3.17547 25.6627
1 19.0976 19.7326 9.81439
1 6.20589 44.3751 29.9633
1 49.3349 39.9074 39.0513
1 19.9072 10.5905 3.33547
1 6.32336 8.47857 30.4966
1 30.1092 24.9572 12.9518
1 35.3884 30.8384 25.6525
1 5.19103 38.4605 30.1986
1 25.2798 2.95447 3.77341
1 1.94677 31.7486 8.56161
1 10.2189 14.1805 41.9794
1 2.82925 24.2135 13.1467
1 33.1624 19.8452 7.00594
1 25.8728 46.7335 31.6289
1 20.975 32.1679 21.3452
1 31.072 4.55567 23.0372
1 11.6917 3.24661 19.2069
1 29.5285 41.8657 23.519
1 32.4924 18.8436 13.8088
1 3.67931 18.6068 20.5847
1 16.697 34.9787 13.5836
1 44.214 24.907 21.2671
1 46.2144 19.4334 23.2487
1 36.2041 4.94675 24.8357
1 9.43994 6.15691 45.1643
1 23.2073 10.8001 19.603
1 34.6508 34.9289 8.50166
1 8.20286 16.9803 24.9229
1 19.8415 33.9409 23.4128
1 24.0616 26.2895 47.6012
1 23.1404 23.121 0.320385
1 32.7583 46.1497 33.1905
1 17.696 2.03772 45.1517
1 40.0309 22.858 16.2237
1 4.39253 13.1138 28.2879
1 44.8552 0.461064 47.3364
1 3.3567 16.4318 11.8316
1 33.2716 42.9942 5.46252
1 16.874 14.212 16.0472
1 37.8886 7.5126 6.04346
1 17.887 16.8833 45.9984
1 49.4457 8.20134 22.8516
1 22.4307 25.2791 28.0968
1 5.19716 20.7166 37.157
1 40.57 15.7469 5.02894
1 21.1315 0.562815 41.3421
1 38.1079 19.1179 49.7294
1 23.8609 18.1008 22.3104
1 28.4562 23.3074 32.604
1 23.8471 41.9719 5.47455
1 46.6535 17.1713 7.21812
1 48.1765 11.9764 31.8592
1 17.503 28.8039 6.68322
1 41.4984 44.3344 24.664
1 14.4687 36.6429 17.8012
1 4.7083 11.976 47.4782
1 9.04686 41.2538 43.1039
1 2.90359 43.5538 27.3153
1 19.7028 43.4933 5.00106
1 14.1073 32.7954 46.4363
1 2.43544 12.0785 48.8719
1 1.76384 31.277 40.8765
1 32.838 43.1956 45.509
1 19.2308 4.30019 43.4432
1 25.9931 16.7071 31.133
1 41.6036 23.6958 11.4969
1 43.3534 48.7032 1.14734
1 15.4733 4.07504 40.3371
1 17.9437 39.0332 20.9863
1 47.4039 20.4717 12.1221
1 9.76537 18.6562 21.7017
1 6.1654 49.2451 25.5951
1 29.9231 13.8043 13.7084
1 25.4847 23.0022 21.7077
1 28.9528 17.0188 36.6442
1 12.029 12.0558 22.2659
1 11.2439 28.3137 32.4795
1 37.6186 14.0772 10.0823
1 20.363 24.4317 9.39051
1 34.9002 25.3718 10.5802
1 35.7656 13.9643 6.26021
1 47.9059 15.5577 10.2652
1 37.0127 29.9981 4.23853
1 7.25692 31.0816 21.819
1 1.29634 14.815 38.3761
1 7.93175 46.8496 9.99944
1 15.5008 24.2826 9.96795
1 19.3207 32.0389 16.9379
1 23.8844 39.6084 47.3981
1 22.6851 8.13605 14.0057
1 48.4037 4.80188 25.4809
1 6.60069 8.58249 26.7557
1 30.7364 6.6406 37.2067
1 26.676 45.0473 36.4975
1 28.6685 20.8826 5.25921
1 36.8392 13.8804 35.0548
1 11.7462 16.432 41.2548
1 47.5014 -0.0653253 47.2978
1 26.9673 39.505 34.0996
1 24.3622 25.7355 10.8155
1 48.5455 7.80031 16.9046
1 48.6005 42.1344 26.7356
1 42.7926 41.0444 39.5551
1 43.6676 16.9757 24.7798
1 48.6943 37.6222 5.65441
1 39.5163 32.4138 13.2124
1 36.7765 46.6444 0.379454
1 32.4703 4.13656 12.8103
1 10.9739 29.0973 24.1811
1 4.11831 28.2411 7.28349
1 0.543324 35.3072 24.8428
1 41.465 20.1651 9.02603
1 20.358 43.2572 26.8242
1 9.90448 10.0857 26.1315
1 16.5469 39.0493 23.4182
1 46.7702 6.632 29.2424
1 45.4224 23.1457 4.38557
1 30.8341 21.9017 16.4003
1 40.6028 33.4175 0.827633
1 28.9303 32.1504 23.3677
1 2.52899 32.2168 24.4342
1 3.57303 4.43958 39.8264
1 8.62691 15.1338 0.367548
1 21.1179 33.9408 12.949
1 39.163 15.2794 49.1432
1 25.7239 49.6829 40.4737
1 12.6157 28.8781 44.3097
1 8.52156 13.1332 8.78752
1 25.2135 36.6475 44.7285
1 8.85749 37.2043 26.9845
1 13.5166 37.9358 44.3134
1 35.4357 18.3803 44.8886
1 49.8525 32.6161 18.4695
1 35.3337 35.9998 3.11575
1 20.4611 26.6783 49.8144
1 40.6513 6.90796 21.2755
1 44.7364 2.03934 28.8287
1 35.1622 33.3497 4.48957
1 35.6904 17.5813 0.0651654
1 9.51887 10.3486 28.6321
1 24.9061 1.49171 16.9108
1 23.4964 42.2263 46.0048
1 14.1328 22.8022 29.9026
1 20.995 4.57518 5.91178
1 5.62406 42.5444 16.8648
1 13.6789 30.7451 0.941251
1 15.8648 28.4617 8.82583
1 37.4238 31.5919 46.1945
1 1.12011 25.9328 26.504
1 11.0373 5.75471 39.3677
1 27.0362 12.2289 44.0059
1 17.6479 31.5688 6.21452
1 19.911 49.3095 25.0414
1 18.3107 23.2132 28.5246
1 33.2303 1.67934 13.967
1 8.49057 44.3985 19.7337
1 26.0597 45.28 22.6387
1 15.5306 1.12871 42.7621
1 19.8704 13.3157 48.0337
1 29.3495 4.49624 38.4067
1 30.4364 1.31487 17.4657
1 43.7901 8.0085 42.3818
1 0.691978 2.45025 11.6424
1 24.0205 46.9857 27.0522
1 21.3295 38.7134 24.6022
1 31.7116 12.8871 1.83947
1 48.8292 12.3584 16.0737
1 42.9642 17.2106 48.9285
1 40.0812 24.7213 9.69509
1 11.1591 32.9265 17.5758
1 11.6729 35.6742 2.84834
1 0.415654 36.8953 35.5061
1 28.2987 29.4471 23.2968
1 7.54156 2.84606 17.1336
1 26.5574 4.93905 23.8103
1 43.0377 9.61186 22.2636
1 1.68688 2.76928 14.3537
1 44.2625 29.1587 23.0054
1 0.43217 49.6004 35.2257
1 25.6925 25.7418 17.8831
1 48.6428 41.3498 6.85443
1 31.1697 25.8395 0.443911
1 25.0995 35.9431 42.0073
1 13.2256 7.44783 46.9381
1 4.61432 2.88872 23.7088
1 23.5397 10.411 28.0368
1 3.26479 48.9037 31.1142
1 38.4789 42.8505 32.8438
1 11.0895 38.3645 48.4516
1 1.02631 4.58877 29.7222
1 7.81661 21.3624 15.0419
1 48.3354 1.17414 24.443
1 14.9507 17.5365 6.19394
1 10.0728 40.2809 2.9968
1 45.0897 29.2635 11.8337
1 41.8008 21.0787 31.4759
1 5.02897 42.3005 28.4649
1 45.4469 31.9324 40.4506
1 43.5365 30.9911 24.9578
1 48.041 37.1672 24.9395
1 8.65857 31.0291 17.8737
1 32.9124 45.2592 46.9826
1 8.88289 45.899 16.9007
1 16.597 28.1389 48.2926
1 1.53648 25.2027 42.0435
1 19.5443 44.5698 48.1058
1 49.6233 16.8038 8.74663
1 40.5382 41.8764 12.8971
1 26.3182 40.8114 37.4858
1 21.3367 40.0958 43.1886
1 41.7779 26.8792 4.38618
1 5.9601 8.75828 44.5919
1 23.42 16.3283 9.95135
1 30.5279 34.3549 37.3261
1 48.9447 20.8035 3.96195
1 27.3137 19.2451 1.22144
1 35.2712 32.0007 15.6077
1 3.87052 4.99931 28.8402
1 46.4547 1.92097 43.4549
1 20.8846 15.8034 29.8903
1 43.0469 4.39129 17.4388
1 36.3116 21.3233 13.1774
1 19.6217 4.98197 34.5884
1 17.9756 17.7319 13.4722
1 32.1803 10.1222 26.3769
1 31.7323 17.9462 42.7448
1 4.54239 38.7623 35.0744
1 5.70769 38.619 25.7084
1 19.3897 22.8495 34.8756
1 18.2338 36.0722 40.7613
1 37.7011 21.3162 15.879
1 9.1932 0.747929 45.3503
1 1.40545 38.4125 47.3051
1 14.6243 22.2873 13.5885
1 8.42123 4.38298 21.6978
1 11.5083 40.7769 32.7659
1 23.0134 49.7344 18.57
1 3.61331 36.3833 31.548
1 44.5 48.4216 40.2537
1 28.2428 27.1244 18.0876
1 30.9465 6.5653 40.9451
1 29.9615 15.4111 32.6459
1 32.134 10.667 21.9283
1 1.48718 37.0905 9.87043
1 22.3373 45.7859 25.2072
1 36.1336 13.0029 50.1418
1 20.4042 27.7814 23.0654
1 29.2185 20.9914 41.9183
1 43.6429 45.0185 15.8811
1 35.2731 30.0454 34.9726
1 22.5198 17.4949 7.66081
1 45.4881 43.5385 42.7361
1 47.8119 3.04213 33.6783
1 19.4219 23.3258 6.96839
1 38.8775 12.0718 13.298
1 16.825 44.4402 13.7545
1 30.1203 47.6006 20.8256
1 36.1454 46.2353 6.6383
1 30.9391 7.30416 6.69565
1 37.777 16.2336 8.84133
1 48.7116 26.0676 49.8875
1 13.7486 45.8361 18.6323
1 33.884 43.624 41.9932
1 33.7377 28.1523 33.7463
1 33.4603 13.0683 31.7499
1 5.62141 20.5436 32.9195
1 7.27096 22.1953 9.3779
1 3.12591 6.92682 41.3698
1 6.39017 18.3957 14.9164
1 19.8859 14.4477 8.51279
1 0.440755 3.38723 4.6759
1 6.33467 29.5713 10.3498
1 32.861 24.123 24.5073
1 40.1721 18.8093 31.4078
1 6.07468 10.001 40.6009
1 14.2542 2.4798 12.7468
1 44.3484 7.97168 33.38
1 30.029 45.0392 9.72681
1 36.3101 39.4602 29.0592
1 13.6168 39.2655 26.4447
1 9.31992 20.4691 36.5498
1 41.131 47.627 13.0011
1 14.6407 22.391 25.6791
1 19.6699 49.4303 19.1888
1 44.0915 14.0528 15.0506
1 19.4747 48.6245 4.78771
1 25.4533 40.0477 0.419916
1 18.8141 7.57674 34.441
1 18.0628 31.6029 42.6654
1 11.3591 22.6243 46.7643
1 0.636084 18.636 43.7933
1 26.6973 26.6622 32.6236
1 42.0727 34.1301 26.7813
1 21.8801 20.216 15.5531
1 34.745 34.2028 45.6958
1 24.02 42.5756 16.2085
1 7.3611 4.02309 43.0776
1 7.70349 15.1331 22.7001
1 6.41363 5.78111 15.5714
1 46.2941 14.6449 25.8544
1 27.4039 35.0954 5.54013
1 1.02215 41.9523 14.6413
1 39.1775 3.12853 7.58622
1 29.2151 39.0071 8.93374
1 42.055 26.1913 35.2198
1 17.0715 41.5128 40.877
1 2.62896 27.0373 2.76557
1 23.5306 9.69778 5.23815
1 19.1159 31.585 19.7764
1 10.0169 33.1571 49.4464
1 32.4366 1.29667 44.4436
1 32.5103 31.3031 43.8447
1 21.7726 2.40569 31.5408
1 34.5285 2.50574 17.8627
1 35.7873 41.4247 39.3634
1 43.7393 0.529989 35.0942
1 43.54 14.6182 48.4676
1 8.77672 23.0037 47.4102
1 25.8579 14.2803 41.4894
1 23.1347 22.0442 31.3611
1 10.3606 7.89831 11.1809
1 0.962862 25.2097 39.2653
1 30.4278 44.977 35.5936
1 20.0221 17.086 22.3455
1 46.5217 26.4562 21.0907
1 28.254 5.23876 16.9021
1 48.5546 16.1006 47.9226
1 35.5603 35.1788 28.0456
1 7.83257 14.7359 37.0685
1 32.3324 16.6085 11.7478
1 46.7182 40.5269 41.7981
1 13.5531 36.6611 7.67253
1 1.52788 36.2163 6.71585
1 27.1453 9.68182 14.0487
1 47.7415 9.5211 19.1937
1 31.1016 25.0526 42.8906
1 46.8453 40.2583 27.9362
1 17.7101 19.8463 33.2279
1 33.0082 21.3464 10.9872
1 41.4754 16.78 38.0423
1 23.5053 8.09701 8.77859
1 27.7467 45.4696 39.2335
1 48.6789 24.2374 38.1568
1 37.2029 2.67267 1.30354
1 45.439 39.8386 22.1547
1 36.0109 18.0689 40.8563
1 22.1818 8.75732 46.1858
1 41.8869 1.31749 0.708528
1 3.36863 40.6196 29.9837
1 3.75358 48.9863 26.8616
1 43.1897 28.3024 7.62929
1 39.9413 18.1092 46.059
1 12.2257 1.40511 20.8025
1 31.3315 42.417 27.8899
1 25.88 29.0674 24.9009
1 37.068 39.9827 3.34254
1 18.236 2.1185 19.6962
1 18.3317 23.1563 43.3312
1 3.0203 41.7089 23.0184
1 35.1096 49.6662 44.4075
1 43.1725 24.9575 0.466407
1 48.2263 7.24392 33.7024
1 17.6064 11.9188 48.2268
1 18.8003 48.2117 35.2839
1 13.409 9.4645 41.0727
1 38.8671 1.94173 10.1556
1 46.905 20.8309 20.7036
1 34.4129 25.3606 46.0915
1 47.9228 4.48644 15.6827
1 5.93297 41.3351 11.1658
1 45.9739 38.0737 6.37672
1 39.0706 45.9706 11.7262
1 23.2424 25.6399 6.53525
1 30.3042 16.0387 45.2129
1 20.0635 3.88388 38.5689
1 36.2052 10.7297 13.2951
1 29.1213 36.0841 19.7413
1 22.6959 13.5701 44.5827
1 18.0002 24.386 41.0776
1 12.4103 13.1901 33.4238
1 6.96162 29.2815 49.1791
1 26.343 17.0202 33.7018
1 5.99852 14.449 39.8536
1 4.82443 21.6885 14.6225
1 40.4815 32.0517 42.1091
1 21.4015 12.2087 9.55655
1 25.9136 33.6236 0.150626
1 24.3876 30.4507 7.85715
1 23.5195 15.3762 37.4884
1 25.8279 49.6704 28.5839
1 48.9157 3.7872 20.7035
1 48.4769 15.583 13.0837
1 35.8862 38.1201 18.1611
1 25.6689 40.434 24.9586
1 11.9431 45.1018 26.7527
1 16.5057 12.9237 3.37126
1 1.01563 5.4656 14.1727
1 30.9718 34.2531 8.23011
1 41.7088 25.5682 41.6623
1 10.9296 18.3269 15.6152
1 23.5442 22.0925 24.5084
1 49.1334 39.2646 36.4109
1 29.4654 11.3417 22.5929
1 41.4641 1.35292 41.8833
1 27.6109 45.5169 29.8243
1 10.8945 4.58684 46.6365
1 17.1384 37.8539 14.3748
1 13.8672 44.4167 31.1083
1 18.7076 36.2083 36.9309
1 1.28273 47.4988 0.743572
1 6.94756 6.38456 33.7669
1 21.924 22.6713 36.1214
1 39.2189 37.4069 34.8264
1 10.4834 7.03091 26.2006
1 0.489479 39.987 20.4394
1 10.7992 38.3572 39.8323
1 4.16895 45.3756 23.5827
1 32.2162 32.4016 25.3893
1 6.57555 6.8692 10.112
1 20.1294 5.61949 31.9829
1 27.2593 26.1716 29.6429
1 12.2004 47.814 2.19865
1 23.2914 20.4579 5.04779
1 0.564448 17.2502 23.8953
1 16.8323 22.3938 32.8173
1 9.75592 8.3181 49.5798
1 1.93241 28.9679 42.7698
1 19.8925 19.0267 31.9483
1 4.61719 4.17004 13.325
1 46.2957 13.4622 47.8723
1 19.0041 31.8573 29.9765
1 34.2704 50.0417 23.2877
1 41.0902 30.0277 40.2892
1 14.4712 44.8228 43.6078
1 23.5398 41.6255 10.9552
1 7.10522 12.5869 18.6833
1 18.4161 26.5955 12.6421
1 4.9437 27.6958 27.9757
1 3.78487 5.56912 2.84703
1 10.6683 48.0722 48.8971
1 6.81937 49.2032 36.7335
1 30.8675 19.8113 28.8869
1 47.1205 42.677 10.3781
1 22.0086 47.5183 46.547
1 6.51917 10.682 28.9318
1 10.5696 42.8152 41.7307
1 3.12029 36.3638 19.4007
1 11.4565 40.9579 46.9359
1 14.0753 10.9108 19.4987
1 17.8256 17.6818 24.4476
1 28.2849 36.7505 3.64715
1 47.4341 26.239 7.98062
1 1.66469 12.5038 10.2629
1 4.0125 17.1174 32.4749
1 18.7733 12.1117 36.816
1 45.4136 36.8814 36.3139
1 40.0041 25.6858 26.6365
1 48.6098 38.1571 9.13053
1 10.2274 3.84929 37.3951
1 4.46735 12.1852 39.9016
1 31.7052 34.5313 27.0552
1 19.06 39.6415 40.2035
1 3.03433 49.081 3.02203
1 23.8893 23.8191 45.7363
1 6.10638 22.0418 26.081
1 28.7458 25.992 22.8672
1 29.3741 49.4268 15.5719
1 25.268 14.1252 30.4267
1 16.9476 6.58455 24.8211
1 5.42867 1.24375 2.6559
1 30.2945 49.4939 40.5469
1 35.1582 5.3601 40.6211
1 0.146854 47.3568 22.152
1 32.9638 47.6309 15.9244
1 32.8053 18.0842 39.3732
1 49.6209 47.9298 44.1786
1 18.8833 33.9379 43.9851
1 0.904005 20.9005 30.4976
1 0.854771 47.4647 26.4674
1 17.7028 45.8317 49.2964
1 44.6602 3.86324 26.4694
1 19.7121 16.1613 47.8127
1 11.7969 45.5941 13.3451
1 20.9705 26.3674 44.9602
1 43.3777 36.3737 27.5148
1 30.0773 22.7665 20.7523
1 41.1503 8.12159 19.0209
1 14.4466 47.3144 5.75481
1 37.8328 11.9881 5.97385
1 8.15941 24.7068 16.4385
1 46.3538 36.1158 15.9398
1 10.5915 38.9679 13.1462
1 19.0068 7.55142 41.5856
1 46.4989 43.0648 24.24
1 3.30822 9.75584 9.05413
1 10.4069 5.42285 20.1486
1 16.3148 28.9176 17.8947
1 4.74081 15.1436 3.76935
1 47.399 15.358 30.8388
1 13.5862 25.7704 1.19698
1 21.6116 27.591 47.3999
1 25.2011 15.1927 34.8904
1 8.50312 30.3565 8.9106
1 33.5302 36.2857 27.1849
1 17.7626 47.5265 9.98166
1 37.8501 5.45355 7.97931
1 34.4421 15.1369 44.3391
1 14.6384 17.8471 17.4442
1 44.8284 19.506 26.6455
1 40.6218 22.7924 33.1575
1 3.34407 6.92655 17.273
1 46.8529 47.5664 5.14587
1 44.9566 38.5428 38.7553
1 16.4139 43.8212 1.73824
1 38.6874 32.2157 18.2559
1 15.5129 5.6792 46.1296
1 14.0461 33.322 4.55029
1 21.3531 47.8182 10.7499
1 13.7372 21.7383 36.099
1 33.4083 31.5187 39.7842
1 25.1623 40.2506 9.17742
1 39.6409 8.3507 35.5972
1 27.1268 23.8056 2.10705
1 23.638 16.1663 5.24542
1 0.530769 32.6937 45.3123
1 26.0106 4.17517 18.1323
1 9.20465 30.8015 26.4876
1 31.599 19.9636 31.4999
1 28.1796 13.7931 21.3698
1 35.156 48.8532 31.2162
1 5.97387 2.20421 6.89074
1 36.3241 29.2213 49.114
1 43.7566 2.92906 3.79325
1 8.1225 38.9879 49.4428
1 25.1166 28.0116 4.2861
1 46.301 18.7924 36.5957
1 17.7057 35.2369 28.1801
1 32.5569 11.3512 28.5782
1 47.9175 34.3413 42.6686
1 44.0691 35.518 17.38
1 15.6618 23.4749 44.1321
1 30.1013 6.84086 3.90091
1 37.6594 18.8417 30.2947
1 33.2836 49.1661 27.6342
1 27.1683 47.3035 41.1098
1 26.1928 10.4477 46.0253
1 7.00796 2.8857 20.1574
1 15.5284 19.7016 1.12152
1 43.2213 35.148 13.0292
1 24.398 16.4875 48.7302
1 13.3803 44.8353 34.8325
1 4.89075 38.7116 2.02752
1 9.17072 4.10728 15.0289
1 32.7159 39.4684 41.7354
1 13.0421 48.1945 39.0451
1 37.8731 35.1987 2.90236
1 26.4372 9.69428 22.2917
1 10.0633 37.1553 17.1522
1 29.5499 10.1747 38.1387
1 4.37377 35.3664 41.1389
1 5.80456 13.28 7.80283
1 20.2142 43.1779 32.9025
1 48.8898 11.0924 12.332
1 25.4236 12.5519 38.5068
1 39.7786 13.111 30.6572
1 1.53605 34.6041 40.8825
1 15.0116 33.0465 9.45686
1 36.1879 46.7385 12.5179
1 11.4898 44.8361 6.53423
1 3.12963 15.8164 7.55379
1 8.46888 28.552 6.6446
1 40.1097 6.1844 37.6526
1 35.9798 46.0726 45.0109
1 43.8882 44.6113 32.5278
1 40.7822 7.44612 49.0985
1 25.7979 18.6692 7.35549
1 23.5321 16.2896 13.5795
1 48.153 13.9387 42.172
1 34.7196 20.9387 27.6946
1 0.469941 36.4316 14.7367
1 48.7588 29.9011 7.25434
1 12.6701 13.0079 13.3525
1 25.361 49.6206 45.3346
1 7.32777 26.2762 35.8217
1 46.6239 19.3143 31.4609
1 49.5401 7.24077 38.1682
1 34.0522 23.2906 12.7187
1 49.1748 20.2768 32.6486
1 1.44339 16.0601 45.0974
1 15.2103 4.6635 25.3258
1 8.75652 8.9713 14.7891
1 46.7482 5.2948 32.0589
1 7.4804 32.8845 19.568
1 14.7598 21.0542 48.6187
1 44.0668 23.9698 17.3984
1 37.7072 39.1507 26.8264
1 14.189 4.49378 21.8498
1 18.4327 46.5324 14.4512
1 0.705273 45.9327 4.98476
1 31.2568 34.5132 4.39729
1 28.5763 27.5808 12.2163
1 22.1556 35.3947 34.6019
1 32.5227 10.8546 9.48011
1 48.5931 35.4721 40.0985
1 16.7966 0.13245 47.8016
1 0.752317 19.1568 20.2173
1 41.5506 13.4381 15.716
1 9.32382 38.2767 42.2479
1 5.79163 0.812655 49.3041
1 30.45 38.5797 26.3496
1 43.2266 1.65195 18.199
1 43.0685 22.0753 37.1104
1 30.1706 14.2619 39.3674
1 47.6844 26.6609 2.40321
1 39.4699 9.03433 9.40827
1 10.2816 36.5033 46.1496
1 41.4604 10.2973 38.2236
1 34.5592 33.9063 19.4251
1 36.6649 42.2049 1.44575
1 10.209 0.42348 4.05212
1 48.8418 47.6931 32.4506
1 20.3555 23.5873 0.680648
1 26.5077 2.49122 9.46312
1 29.9673 27.2615 20.5411
1 43.4833 46.1659 5.61631
1 21.0757 50.0564 45.3658
1 29.9387 3.87089 31.52
1 8.69804 46.139 7.37163
1 46.8682 2.77681 36.354
1 23.1557 29.5596 5.3686
1 18.7448 29.7608 13.0308
1 21.3143 33.0603 35.2077
1 31.5348 4.58384 46.8194
1 34.5846 48.6918 41.5597
1 45.4826 0.171714 4.50518
1 38.4705 1.76302 23.3367
1 40.8379 26.238 31.0032
1 17.8081 9.642 30.3145
1 29.5756 20.2468 33.2824
1 4.45996 39.2851 22.7654
1 13.0971 27.2364 3.39088
1 30.7861 22.8836 36.4566
1 10.0214 12.6722 32.6351
1 22.2201 37.6106 29.2555
1 7.94193 37.253 21.895
1 3.62788 2.3845 49.807
1 23.4193 31.1182 28.645
1 23.1032 40.1617 13.566
1 39.5484 9.19808 3.1238
1 16.4124 43.6194 11.3176
1 11.5085 8.67744 4.38717
1 48.9402 5.64956 40.6552
1 31.2764 22.2496 43.9771
1 8.94961 3.67032 1.06813
1 43.7541 18.2935 20.3305
1 48.7382 40.6707 43.7209
1 31.1379 41.6008 6.98767
1 8.66027 43.614 25.2232
1 19.4763 20.2914 48.2858
1 21.5986 7.1294 42.594
1 22.7955 13.8757 5.85886
1 27.4963 43.2945 41.1326
1 47.7179 45.2834 15.1297
1 49.5065 27.9719 44.746
1 47.8278 47.1662 48.0443
1 38.9969 48.4331 42.2321
1 17.794 29.378 38.4693
1 44.4627 20.6322 32.8189
1 43.7888 42.577 24.896
1 48.5598 32.666 32.9966
1 11.5317 47.6407 36.862
1 34.2557 12.7833 34.1432
1 7.32832 32.0019 5.6263
1 29.9333 49.6637 4.69843
1 19.8825 3.91392 13.6834
1 16.4628 2.46653 26.5457
1 26.4915 28.9005 41.5086
1 16.1075 39.0712 30.2942
1 2.9583 21.0328 23.6149
1 39.081 41.3132 10.7059
1 30.9404 9.99696 15.6817
1 18.3395 33.3867 32.2127
1 40.4684 -0.202229 29.4855
1 34.2078 8.82697 39.2932
1 37.3762 9.91883 1.4683
1 26.5547 18.6348 10.2125
1 32.4323 0.784386 41.7321
1 22.3193 12.8085 0.782493
1 32.9988 41.0347 37.5085
1 14.116 49.2515 11.2928
1 22.6214 25.8495 20.0433
1 18.7007 34.9906 3.7281
1 12.34 30.2898 20.2414
1 40.74 40.7096 0.613946
1 14.7023 29.6791 3.24456
1 32.3047 14.6563 24.5155
1 31.3904 27.3172 16.6875
1 18.3817 47.4112 44.6808
1 28.3504 42.2825 20.8196
1 48.9355 22.7205 13.0542
1 22.1809 17.6127 15.8912
1 19.6791 16.8149 38.0711
1 41.4106 38.3361 45.7764
1 2.88584 36.4576 25.5909
1 23.7479 22.0759 14.5571
1 28.6588 48.4654 45.0135
1 42.8226 25.5023 23.5082
1 24.2046 37.8242 8.35289
1 1.60747 1.17983 47.8874
1 15.2134 3.80971 32.8556
1 45.0006 26.4939 6.62959
1 22.8491 1.3025 0.873916
1 46.1681 4.77059 11.3328
1 20.1287 9.29499 27.2404
1 43.3788 8.12379 10.3347
1 42.8544 11.9495 19.7194
1 48.3213 45.0842 19.8697
1 17.0492 28.8315 2.52776
1 27.4793 31.8977 26.0245
1 19.9756 33.9141 28.334
1 25.6896 42.1791 7.33466
1 12.7741 8.98031 11.7756
1 38.7298 25.6756 16.5874
1 13.0229 25.7052 27.6437
1 44.9349 32.5068 48.7315
1 12.4325 46.5861 24.6168
1 8.47299 28.3005 22.2972
1 32.8295 19.0399 36.1123
1 10.1363 30.4977 39.1449
1 17.0242 7.59787 4.77096
1 2.87552 5.90595 21.8269
1 0.759338 38.4707 44.4995
1 43.0259 2.15833 9.96245
1 1.16884 26.8128 14.5425
1 10.0463 18.0206 37.4301
1 48.0206 36.6793 44.6728
1 29.6723 30.0684 37.5895
1 4.7795 29.013 32.7661
1 46.2155 17.3324 27.1582
1 4.73121 44.5458 15.2169
1 21.178 31.6602 14.8131
1 31.3847 36.7519 21.2588
1 0.693187 12.649 3.07144
1 11.8919 8.62793 44.9167
1 30.1521 1.98435 46.1473
1 19.8158 42.234 23.1109
1 37.4028 27.4216 3.27035
1 10.7562 13.349 15.3305
1 40.9573 22.519 39.1008
1 15.0504 19.5259 25.6144
1 32.4098 41.7167 31.8851
1 46.1832 20.0647 42.9505
1 18.3704 47.9465 7.27256
1 16.049 39.9359 0.813256
1 12.524 23.395 25.4505
1 33.3591 11.7618 24.3846
1 16.1144 34.4478 44.8586
1 35.1077 21.6279 44.1511
1 24.6469 12.1397 24.3631
1 5.06345 33.6341 18.7615
1 13.023 28.7387 22.2318
1 38.1436 26.1321 5.89259
1 5.73026 19.5933 39.8867
1 37.4471 0.146183 29.9806
1 46.6477 46.4481 2.56453
1 29.4106 28.7355 2.2318
1 12.3551 47.8404 29.6552
1 6.60555 12.6741 13.3152
1 49.3519 17.1033 21.3651
1 32.6697 3.52605 41.4459
1 38.469 33.315 10.2328
1 6.89306 38.3964 41.0427
1 32.8229 18.8373 27.5086
1 23.1192 24.3626 8.96377
1 38.6033 28.3471 12.695
1 45.3281 33.4462 12.6621
1 9.98826 31.3889 31.1659
1 14.5886 11.4612 33.8563
1 23.2317 26.715 38.1093
1 28.9201 29.0644 8.14097
1 33.3403 29.0189 -0.684942
1 24.7546 10.2132 31.6356
1 12.3441 41.9276 5.47619
1 36.8262 5.36435 32.4431
1 33.0214 1.79869 29.1257
1 18.19 12.5466 26.5408
1 46.9669 45.1506 22.1945
1 3.15108 5.25294 35.3883
1 43.1867 43.3973 46.4467
1 35.5287 0.340494 39.328
1 21.0115 12.8668 30.2053
1 19.7458 28.9462 20.6063
1 1.03645 20.302 5.55821
1 2.66292 19.0948 2.61141
1 32.2636 26.3464 26.0397
1 6.98178 28.0422 38.1898
1 35.3242 11.993 38.9976
1 45.3312 1.64452 19.7516
1 28.294 12.4255 27.5903
1 21.2325 30.198 12.4368
1 8.42492 16.9529 2.23349
1 33.3094 31.9902 0.628587
1 14.8476 40.766 37.1154
1 37.8644 44.2155 48.9258
1 37.0519 17.0688 26.2191
1 18.1102 19.41 0.530255
1 15.0281 16.564 31.6161
1 48.8128 29.9619 0.543248
1 4.29585 31.4103 1.78682
1 24.2121 38.0707 33.6867
1 36.9613 5.18906 42.6704
1 7.94775 45.3441 4.53391
1 31.5252 36.4714 15.1798
1 16.4435 19.4815 28.2592
1 42.0783 34.7113 15.6748
1 39.4561 10.8126 28.1519
1 49.8152 1.12527 32.8026
1 0.251258 15.0046 30.162
1 46.1438 24.9461 27.3876
1 6.89857 17.7703 41.7952
1 5.52292 19.2011 5.51304
1 22.3477 47.2329 28.9325
1 17.3 41.8575 14.7742
1 47.4138 43.109 46.8727
1 42.2962 17.649 42.2379
1 16.9636 48.1981 12.748
1 12.8201 18.8489 20.2805
1 1.15405 0.763916 42.6675
1 37.6333 20.374 24.0467
1 8.80908 14.3385 14.0562
1 12.4761 17.1987 38.4151
1 11.2419 27.9272 26.947
1 23.8875 21.3966 42.8445
1 46.6066 2.21325 39.346
1 48.0235 23.1273 15.8114
1 20.2413 39.3102 30.0433
1 23.6121 31.2851 38.7568
1 1.60484 34.6406 11.1711
1 5.35539 6.54432 42.8273
1 12.5226 22.2839 16.502
1 31.0914 26.9822 38.3569
1 16.0428 3.9833 2.9726
1 7.07703 27.9374 33.7916
1 44.6364 14.0516 5.89034
1 1.47557 47.5563 19.5875
1 20.9324 9.65892 8.23532
1 32.215 23.9768 14.6641
1 47.8632 10.5106 25.2449
1 27.3072 7.1594 48.2861
1 44.396 6.51792 27.8168
1 43.4311 20.2347 39.5853
1 20.1911 6.02187 45.1418
1 35.0125 36.658 44.2508
1 27.0842 35.7721 21.565
1 4.72358 27.8085 45.3504
1 1.20719 44.5624 18.8011
1 8.23293 30.0125 37.1491
1 20.5217 26.6301 3.86287
1 41.2391 31.6157 4.11259
1 4.83862 47.0193 30.3692
1 37.116 40.3987 11.8653
1 22.638 31.6641 49.7318
1 43.1437 45.8338 13.0248
1 38.2749 14.154 14.7908
1 11.3803 22.903 22.7109
1 39.9186 48.9674 24.1794
1 0.737291 6.8957 24.8134
1 40.038 38.1525 32.411
1 21.2094 47.8091 16.873
1 28.3986 27.9851 48.0233
1 2.9836 23.1681 48.8798
1 42.3931 22.7124 28.7356
1 49.6157 14.5726 34.9484
1 6.61791 19.7656 24.7413
1 37.1879 44.3325 27.6574
1 23.0956 39.6174 26.4244
1 13.6364 44.7264 0.948473
1 31.5181 25.6908 18.9603
1 46.2445 15.6004 18.9267
1 49.014 33.3137 9.56936
1 47.8168 2.17463 4.26053
1 18.0431 45.3368 17.0727
1 2.54989 44.2204 36.4236
1 43.9153 47.3625 48.4247
1 40.6269 2.71288 32.3028
1 11.0237 2.51239 5.56827
1 12.9517 43.2881 19.2506
1 21.4323 8.58551 49.0224
1 17.5588 33.5983 39.7583
1 36.5386 49.0092 6.95617
1 7.02715 9.84706 37.6969
1 1.08831 28.152 30.7977
1 5.2896 38.4177 11.0241
1 23.0124 27.15 29.8856
1 1.85253 6.89294 46.8258
1 18.8615 34.1954 11.8173
1 9.28793 36.0309 38.895
1 25.7954 13.7028 2.24369
1 46.3076 7.03326 15.7046
1 32.7106 34.3113 23.2312
1 2.11459 47.0399 8.10045
1 35.45 38.284 22.6272
1 5.98778 10.446 22.1716
1 5.8957 40.9353 43.4209
1 15.4305 46.5339 39.1374
1 46.5453 1.21254 13.1483
1 6.12791 3.76934 40.4336
1 48.6005 0.474396 28.8642
1 32.2344 43.2289 39.2112
1 0.0991485 12.7936 28.4297
1 15.754 1.62026 4.14361
1 13.7453 40.9559 45.0327
1 29.5264 38.6571 22.1478
1 39.5268 14.7998 19.3659
1 46.1513 5.40773 22.7058
1 7.33955 18.4569 47.1585
1 13.5787 8.52187 7.60036
1 28.7831 19.8619 25.6618
1 27.0623 10.7098 5.87511
1 20.1479 14.2564 5.78236
1 11.1718 35.1568 32.6774
1 36.9807 36.3675 26.1225
1 15.1366 32.9939 1.27569
1 31.8749 6.28944 10.4008
1 35.5698 42.4817 6.46882
1 38.6664 31.4169 20.8305
1 25.9739 20.5252 14.769
1 26.4618 8.54799 28.9447
1 43.2961 37.4648 40.7639
1 3.47121 7.6223 25.011
1 4.85737 15.6095 23.5963
1 10.5068 14.3701 22.25
1 12.3368 19.389 26.352
1 1.97598 42.3536 45.9548
1 33.5217 19.9924 24.1095
1 37.2259 20.8673 28.5244
1 16.3324 36.083 30.6998
1 27.5208 23.5148 17.4991
1 20.5053 0.506573 49.4914
1 11.076 24.8545 29.3843
1 37.9612 26.9791 39.5475
1 15.9054 38.9449 18.7316
1 27.211 34.5188 27.8622
1 25.9853 7.46399 10.9405
1 18.4378 48.4398 0.130508
1 40.8041 28.5863 0.994365
1 33.8181 17.2088 29.5214
1 9.6307 7.25041 18.0623
1 7.85509 40.3793 18.3984
1 22.9734 13.2065 41.992
1 1.05301 42.1429 28.3835
1 33.4575 8.13826 11.6853
1 5.14104 45.1443 5.12151
1 3.64061 19.9194 18.1761
1 29.3954 49.6591 12.8249
1 21.3972 11.9333 46.2787
1 9.07202 8.92278 22.6878
1 6.1384 29.6443 5.63577
1 48.5487 9.05996 49.4951
1 48.4132 35.5846 49.4751
1 3.54685 6.72582 8.20316
1 47.9487 19.5884 9.4941
1 46.3157 27.7001 24.2694
1 36.0289 39.4636 43.6427
1 32.0702 17.0556 48.5384
1 15.3741 9.27524 5.8331
1 3.65111 24.5573 30.912
1 35.7776 43.2413 44.2379
1 45.8199 21.6339 37.1539
1 22.9502 35.7921 22.6259
1 1.26734 31.166 20.8178
1 26.1757 5.17987 14.5309
1 7.68641 37.967 37.1475
1 32.7598 46.8294 20.4465
1 16.7393 28.3753 30.7131
1 5.01623 10.6383 4.31392
1 16.3376 1.81764 39.4883
1 49.3719 34.2213 6.85153
1 41.4812 35.6432 19.4333
1 38.0965 40.811 23.4233
1 31.5505 1.03363 24.6733
1 42.4275 38.458 49.7724
1 45.0655 31.2285 27.2335
1 35.7392 15.0295 37.7724
1 1.08419 20.7616 17.3334
1 12.6613 38.4507 32.0189
1 37.3602 12.8188 32.0944
1 20.1921 47.2278 32.6245
1 43.1899 21.6004 10.3341
1 9.99794 26.0809 36.3083
1 46.487 9.02919 39.9451
1 7.08837 19.4819 9.9734
1 6.55613 43.2987 21.4747
1 39.8779 10.8108 40.601
1 32.3384 18.1994 45.5842
1 12.5079 4.84639 35.897
1 10.2916 16.6564 27.394
1 23.1782 7.56242 23.7304
1 37.9299 7.90816 32.3017
1 47.4039 33.765 1.48472
1 4.52648 18.2436 26.3271
1 37.8813 1.37324 44.7333
1 41.1392 47.2247 48.7469
1 7.69482 49.5517 41.0152
1 16.9726 12.0095 22.5094
1 24.7239 28.8442 28.4475
1 18.4475 19.0835 37.7561
1 23.5354 11.9662 3.93944
1 42.4537 46.9362 8.66692
1 41.8119 11.9339 29.697
1 12.8986 10.6425 30.4525
1 32.6488 6.66118 39.0732
1 40.1124 28.7654 43.8297
1 23.6903 33.6799 1.33506
1 39.9052 14.7836 46.1025
1 20.4456 20.33 12.0903
1 12.8209 23.8904 37.9145
1 30.5988 30.1464 19.7408
1 39.1127 44.0332 9.9211
1 13.0263 17.0334 4.20115
1 45.16 41.3746 11.7858
1 13.84 11.1031 45.0557
1 0.521999 49.1855 30.7386
1 19.9989 27.6277 16.7435
1 44.4835 48.1479 24.1281
1 23.4923 31.402 44.8406
1 46.7272 10.5204 3.92812
1 10.4736 25.8131 31.912
1 10.2929 40.9069 35.4852
1 28.9179 20.9319 14.6228
1 19.4382 33.9527 46.6949
1 15.8511 30.7474 10.3556
1 21.6234 6.69553 4.08509
1 39.7398 35.9424 16.0022
1 29.3081 30.1496 40.4033
1 27.1641 44.2158 10.2434
1 19.7805 19.8503 2.8212
1 24.8616 36.2296 19.947
1 37.1341 33.878 41.2436
1 1.11303 44.0406 41.4259
1 29.3788 5.57458 19.5409
1 32.748 13.047 12.4515
1 15.5394 23.3559 34.9005
1 43.1202 20.5503 47.3137
1 42.7366 37.1919 2.32152
1 44.0971 47.4365 33.5339
1 10.3976 12.5975 29.5903
1 27.404 16.2936 25.3606
1 44.0807 10.7295 42.8283
1 14.1842 20.8861 44.3318
1 21.5186 42.7309 38.6779
1 7.68343 17.1944 20.5563
1 29.1216 30.4867 14.9728
1 12.9961 6.94719 37.8343
1 14.7566 5.25613 1.08082
1 37.6421 24.0283 12.4044
1 11.8402 2.77939 30.9555
1 36.4982 1.50033 21.6868
1 3.01887 32.7419 28.8712
1 1.79833 9.52556 45.4329
1 45.0446 36.6075 46.5823
1 5.08354 28.5833 42.2745
1 9.65839 32.0154 14.7643
1 49.8211 7.54247 28.8052
1 24.1721 17.5833 27.7668
1 34.3766 47.2622 29.1508
1 45.0307 42.7441 48.1401
1 42.5707 31.8096 36.8622
1 32.7413 22.6831 31.5979
1 47.8091 42.5041 33.985
1 48.6706 38.9828 31.5525
1 25.3709 48.2248 3.29581
1 6.10798 36.5888 28.1485
1 22.4856 16.444 2.76365
1 44.4883 5.38384 9.01924
1 12.3288 20.202 33.088
1 9.48194 25.4247 25.7298
1 22.2464 6.88495 11.4158
1 15.6537 8.66669 39.9661
1 31.1846 7.52528 23.08
1 17.7368 30.7585 48.2849
1 28.8075 45.4896 5.98088
1 9.31597 44.3615 37.7562
1 36.7698 0.788312 14.304
1 23.8096 43.0861 37.1797
1 15.9418 15.5983 49.8382
1 11.0731 21.1529 40.4354
1 1.04847 6.42207 32.9987
1 4.66712 18.0179 16.8485
1 25.3425 4.48902 30.8993
1 29.7593 42.0708 32.5113
1 2.78926 9.46855 0.458191
1 13.4218 31.8419 14.9332
1 26.6077 5.42974 26.6173
1 27.3914 31.3441 30.9089
1 0.537206 3.45054 41.1376
1 41.7922 14.1857 18.5232
1 31.9465 37.6586 48.6044
1 43.7914 33.3501 32.5187
1 46.7126 29.6494 37.0925
1 26.6848 13.2126 4.89571
1 8.81085 25.3748 28.2087
1 12.6954 22.0489 3.68069
1 39.8473 39.4996 8.72103
1 38.1642 34.3687 37.2688
1 43.3716 41.529 22.0173
1 22.6477 13.5813 23.4829
1 41.8642 0.282325 26.0434
1 2.61514 29.2352 18.5144
1 40.4128 17.5815 22.9731
1 38.5912 41.345 39.6943
1 49.3412 35.2294 19.1102
1 6.11967 43.2025 36.2233
1 39.035 35.3336 29.0351
1 9.99356 40.073 19.6846
1 22.5806 34.4524 41.8672
1 9.92219 2.85967 34.5738
1 7.47922 23.8581 13.8494
1 22.6517 0.242435 34.848
1 8.74512 17.1478 10.4912
1 47.4676 26.7918 46.0421
1 33.8307 12.1512 3.55538
1 20.8685 45.2545 16.843
1 10.9541 38.7601 44.6933
1 14.8432 30.2012 34.5874
1 8.26061 15.485 43.3058
1 26.8311 21.2573 23.171
1 37.5002 26.3955 32.6443
1 14.6135 5.71606 4.66839
1 18.1879 43.4754 31.2537
1 25.6533 14.5962 9.63362
1 26.0799 37.8552 47.1021
1 27.9609 22.7829 24.6822
1 42.1251 1.05822 44.5602
1 37.7061 8.50768 20.721
1 4.7282 38.0568 42.9756
1 12.5112 30.3711 46.3857
1 45.3435 37.8512 23.9377
1 13.961 49.5443 7.55885
1 18.0184 41.7647 6.87657
1 43.7193 0.938444 13.8373
1 14.4731 17.2481 1.65135
1 41.841 23.2225 24.7532
1 36.6556 44.1077 8.4573
1 25.8677 26.871 45.2405
1 39.8785 49.3361 10.4035
1 42.3031 13.4142 46.1587
1 22.1851 32.6669 18.1515
1 9.55591 40.9391 26.5123
1 25.5698 6.02093 46.4157
1 20.2702 41.8935 17.0438
1 34.808 41.215 41.8268
1 1.84035 8.04765 2.86262
1 48.1889 34.2515 14.6026
1 36.0077 31.9827 18.3652
1 42.3493 7.94908 47.0021
1 36.8986 44.0095 24.64
1 24.4041 34.7706 17.5937