4096
 Atoms. Timestep: 480
1 4.29745 31.0884 17.5095
1 31.6015 16.1016 11.6484
1 37.9412 49.0057 29.7314
1 24.6434 42.2898 11.9952
1 48.0833 14.6449 22.058
1 14.826 49.224 37.7455
1 26.9086 34.618 7.68375
1 35.8465 43.2242 16.4157
1 0.603761 46.4167 34.5058
1 38.6351 1.60837 25.68
1 27.8138 15.3376 4.54287
1 38.8251 46.2305 34.8587
1 13.238 0.400701 6.91398
1 2.73836 18.9561 25.7927
1 33.2233 29.6847 7.16951
1 24.5481 6.10866 17.1708
1 37.0972 5.75957 40.7086
1 4.38016 21.8735 5.21676
1 14.0275 12.4609 18.8563
1 10.484 23.0271 7.16366
1 39.6143 9.55381 6.87881
1 12.983 26.967 11.024
1 4.4241 35.2797 39.9532
1 46.6475 19.7791 21.1646
1 14.2248 14.3785 42.3427
1 0.0378486 33.828 13.3706
1 3.53051 9.27262 17.4821
1 14.5384 16.2371 22.5603
1 7.81517 12.6246 26.313
1 3.23321 45.4145 46.3349
1 30.3988 39.5717 44.9151
1 8.89941 6.22825 12.0878
1 35.2988 1.25928 9.90251
1 5.80451 26.5033 15.2693
1 27.0621 46.0808 44.6199
1 9.39084 42.3245 21.313
1 14.9953 14.7384 5.99638
1 19.3882 31.2464 41.4724
1 4.39879 33.9355 9.28219
1 37.412 13.9044 16.3553
1 28.6146 37.77 28.8082
1 35.0898 29.8314 20.4411
1 3.55355 43.7719 13.6778
1 37.3673 38.0971 46.0216
1 6.51102 4.97838 11.4247
1 14.2966 27.0909 38.5244
1 38.5841 21.7466 27.0569
1 6.14271 33.2389 15.1239
1 5.56251 0.454049 23.657
1 16.3605 36.5672 10.0338
1 11.2437 6.93221 22.5618
1 31.4685 12.395 48.4397
1 11.5788 15.5532 34.5948
1 9.8468 26.3315 43.0766
1 40.3566 21.5091 3.02052
1 32.6035 29.3573 32.7512
1 27.8914 16.1839 14.3099
1 46.7746 45.9959 37.4112
1 33.957 3.16946 49.516
1 19.1548 23.8321 9.32336
1 30.0326 32.076 35.9557
1 10.0811 42.8166 36.7161
1 46.3948 42.3778 2.78998
1 9.13914 15.9818 44.0476
1 42.6148 48.6185 5.18398
1 5.31838 2.36138 17.391
1 39.1161 8.84187 45.1436
1 42.7577 8.20094 17.6652
1 23.2994 21.61 38.1642
1 43.3466 21.0727 3.90797
1 25.8946 3.93493 30.2389
1 30.4045 23.96 25.1403
1 15.3942 2.84459 27.0926
1 31.526 35.8439 2.55685
1 27.953 1.79715 24.5429
1 11.4085 3.66725 30.3933
1 41.5252 29.8373 7.73669
1 16.7462 34.7187 24.7318
1 28.853 22.1887 18.8433
1 2.65816 25.779 7.03935
1 37.6702 6.67476 46.0294
1 33.2661 3.48395 32.7844
1 14.046 5.20838 8.42366
1 0.797213 48.4069 15.4652
1 30.4862 15.765 14.1326
1 22.0244 49.4551 36.5057
1 19.7814 42.7999 10.8993
1 9.01702 36.5616 3.78314
1 2.26387 15.6006 12.2594
1 41.4001 42.1608 33.3103
1 23.9343 4.0333 28.4626
1 7.44049 37.8575 11.3995
1 38.2652 4.47285 48.8286
1 32.2263 3.50133 17.679
1 15.4855 13.2421 28.4569
1 47.4477 14.5566 15.4896
1 17.114 3.85358 33.7512
1 17.1895 44.399 46.469
1 21.7549 3.64299 1.41161
1 8.00092 36.1796 42.0369
1 31.3034 23.6594 30.812
1 23.3819 17.5911 1.9138
1 21.9712 24.8398 5.8454
1 17.9487 34.3359 19.0688
1 5.55762 4.06949 13.9609
1 38.8369 32.8044 21.6785
1 45.937 17.2949 7.06761
1 9.19276 6.80076 4.86757
1 35.4748 10.6317 44.9243
1 10.4786 44.4263 45.6717
1 35.5423 38.6913 23.4878
1 18.5815 44.0782 22.5441
1 29.8148 31.4325 30.3418
1 2.57748 35.4956 43.0242
1 28.2783 23.5993 11.9855
1 30.3679 23.804 10.1636
1 24.6323 25.3187 41.0748
1 42.6035 1.57765 33.4634
1 47.8202 25.9114 27.5633
1 21.6567 46.7378 10.1213
1 12.3971 22.8571 1.17631
1 36.2941 11.3842 15.9473
1 44.1418 14.0853 38.0844
1 20.3964 36.3941 2.42068
1 13.7958 1.78302 30.8019
1 42.1687 21.8259 22.1762
1 34.9895 36.6421 32.4329
1 0.630592 16.0792 10.2281
1 29.8343 2.07124 40.4676
1 42.4761 7.97507 0.826715
1 12.9367 38.0626 20.8708
1 33.0437 27.0341 27.2065
1 20.2581 5.48566 2.80263
1 17.9509 36.6412 12.3635
1 2.77416 7.23462 31.0912
1 45.4855 39.4487 7.54777
1 4.60826 17.3873 4.21591
1 20.1442 39.4742 23.2991
1 40.6768 5.26677 35.608
1 0.677864 35.711 19.0966
1 22.9462 14.8551 43.9188
1 29.7786 34.3654 29.0469
1 18.3447 11.0113 48.345
1 30.1739 49.1745 12.0032
1 47.2471 32.5283 19.774
1 49.0538 43.851 16.859
1 0.561956 10.0164 4.4227
1 40.8593 48.0103 41.149
1 15.4027 18.9057 47.1034
1 46.1839 28.3844 8.08782
1 14.4884 21.8032 3.6709
1 37.8518 47.6558 19.5509
1 12.5828 19.7225 22.8466
1 4.31427 45.8719 29.2446
1 4.65397 26.8035 19.1197
1 47.5074 49.1071 8.37762
1 35.5684 8.78814 34.7417
1 19.8225 7.08035 21.1496
1 34.6937 48.6323 6.64056
1 39.5623 14.036 2.10136
1 32.0188 0.497078 43.9855
1 13.9758 5.99391 5.61959
1 47.0561 16.4354 34.5271
1 31.316 16.4398 6.91157
1 37.9902 3.77848 11.5016
1 47.703 1.86759 5.03495
1 30.984 13.2581 15.2103
1 39.1488 31.2484 24.4026
1 32.4899 36.815 11.1868
1 20.8716 11.3748 49.073
1 34.1137 5.03687 21.6457
1 32.8255 35.4068 41.5785
1 9.6285 6.98584 26.0969
1 28.5952 26.6567 41.7537
1 32.0568 36.7471 14.1793
1 23.0868 39.1192 2.00373
1 8.90337 9.14591 3.24539
1 26.0089 49.102 28.696
1 19.7732 30.2698 30.3922
1 9.91072 34.5545 38.2475
1 45.9954 22.6778 24.3682
1 12.341 9.30517 1.45167
1 35.7451 40.3542 29.5613
1 11.1715 24.3015 47.3306
1 12.12 49.4783 38.7815
1 31.6133 21.9313 33.6242
1 25.7537 10.8304 33.8332
1 7.01025 31.6482 17.1686
1 32.6983 45.8166 40.5418
1 9.12703 48.9352 7.17455
1 0.100198 33.8924 38.6358
1 16.9639 31.7717 37.8049
1 32.1206 29.4159 41.8383
1 8.91155 44.2766 0.703237
1 48.6096 8.94791 20.2389
1 26.863 0.488888 42.8663
1 45.3423 3.97017 7.00854
1 34.1201 25.5056 15.8381
1 34.5115 22.82 26.7001
1 1.01702 18.9854 23.4724
1 18.7411 13.3281 23.6449
1 16.1036 10.666 6.46501
1 5.80462 16.1117 14.9517
1 48.0946 11.3441 19.46
1 42.9638 9.61372 45.5698
1 13.6261 44.3569 15.5008
1 19.4704 17.0262 7.20505
1 43.0746 36.2474 9.49879
1 23.5457 1.6519 9.38594
1 23.4458 25.722 24.1177
1 41.2173 43.9336 26.2406
1 40.4676 46.1581 22.4391
1 36.8584 21.645 34.9516
1 6.35191 43.4375 48.4087
1 19.8619 38.4188 11.6596
1 1.36032 6.52632 22.8626
1 12.2582 31.8218 27.882
1 30.5408 36.7583 22.955
1 4.72028 10.4739 4.22847
1 49.7359 6.92136 3.26368
1 20.3988 43.7109 17.7699
1 6.6849 42.7245 4.87545
1 28.8209 16.5511 2.05971
1 15.5428 6.37167 43.8525
1 27.6159 30.9268 14.124
1 19.9416 18.5537 9.94614
1 31.6202 25.6953 33.3994
1 1.38096 14.423 16.3179
1 19.254 13.9579 0.797596
1 24.9899 41.3275 48.8538
1 22.2828 25.7841 8.34811
1 26.6391 38.6924 12.1359
1 20.237 24.3674 15.279
1 22.238 6.85298 24.9604
1 33.4274 14.2858 41.5185
1 32.231 39.4125 19.5051
1 10.043 17.7764 32.1058
1 0.292481 5.45057 5.4931
1 2.31844 23.8396 5.10362
1 47.117 29.5236 44.217
1 35.5262 20.7725 11.8759
1 18.5457 39.9719 41.9493
1 28.6665 22.2461 34.5296
1 47.4879 11.4129 11.9786
1 14.3389 42.7009 42.5306
1 5.44099 15.7127 22.5138
1 16.2477 36.5198 18.1396
1 16.2092 34.5067 45.7139
1 37.786 3.67663 7.67429
1 24.0427 7.01774 22.7355
1 38.2079 39.8308 0.35609
1 20.5812 18.6932 45.4277
1 35.8436 45.9756 19.9725
1 23.9665 15.0616 39.646
1 7.20431 13.4648 19.1606
1 8.3134 39.3628 -0.143049
1 43.1936 16.8245 22.7376
1 48.5583 10.9864 7.87195
1 43.865 26.8291 43.3803
1 49.0392 47.4966 38.7224
1 18.459 13.5986 20.5401
1 14.3344 15.2108 2.77343
1 32.8164 46.4892 35.35
1 48.9093 13.0001 41.1913
1 44.9516 46.2965 13.6239
1 5.57845 48.8282 19.6388
1 23.9513 16.5583 10.2775
1 18.5251 37.8487 40.0144
1 15.6345 44.5535 11.8849
1 44.1782 29.5506 33.3786
1 12.0184 40.5258 24.1162
1 35.106 20.4713 25.0114
1 41.0149 40.2285 4.44432
1 10.3499 20.5822 8.63221
1 11.4922 30.4941 4.65105
1 1.3681 28.2665 4.45044
1 2.13975 40.087 33.9927
1 31.6621 17.2195 37.6241
1 31.868 44.9066 43.9978
1 1.85449 45.9452 37.9748
1 21.8351 8.42733 -0.0852802
1 15.9125 25.0968 14.946
1 48.318 3.78032 44.7733
1 13.6874 23.3832 26.9076
1 13.9791 49.0862 13.3227
1 12.4202 17.4551 11.3037
1 12.2306 16.6481 2.69255
1 47.3637 43.6023 26.9659
1 0.636994 32.612 18.6598
1 26.9103 26.5298 27.7732
1 39.2811 19.974 40.288
1 2.09843 24.7214 46.6358
1 40.2556 22.2972 38.1734
1 6.56442 41.4582 42.912
1 39.1721 13.7192 42.915
1 35.6129 30.4484 5.44463
1 40.6573 9.62392 9.4102
1 30.7407 26.9556 40.039
1 41.8831 19.3564 27.4354
1 25.7716 10.0185 43.7864
1 2.88718 37.1693 11.2945
1 12.4682 33.2496 9.83479
1 28.3822 45.205 18.0828
1 22.9723 9.80776 25.1421
1 1.01313 2.21375 41.1689
1 40.1845 21.0665 9.58399
1 13.2857 5.80278 18.9317
1 43.6141 8.47829 13.7081
1 6.73772 9.60186 13.1405
1 15.412 25.1995 39.8598
1 12.9555 32.7295 32.3557
1 39.8116 15.2582 49.1819
1 5.58012 44.5231 38.7522
1 41.2021 48.1335 11.3331
1 42.5548 29.976 24.5546
1 44.1694 29.8674 48.3451
1 32.321 6.37207 47.7438
1 3.51574 14.5812 7.39246
1 35.417 12.8852 40.4256
1 19.5992 3.32209 26.9193
1 46.1957 17.4526 9.76872
1 34.4247 24.1729 5.13477
1 41.8732 26.7387 36.3245
1 8.10964 42.8975 30.5378
1 9.66044 49.1443 28.4479
1 0.0433311 29.6473 38.827
1 3.90476 36.9106 35.466
1 1.9949 15.2224 38.8806
1 41.0864 14.0096 8.81403
1 48.3792 4.71343 2.28719
1 32.7325 34.9083 23.4815
1 20.4988 14.2525 12.4104
1 15.4106 38.6364 22.7472
1 31.0375 46.3753 26.6478
1 43.3775 17.7781 6.9576
1 30.5393 39.9497 11.7748
1 41.8635 36.5451 33.1193
1 46.331 2.03966 48.3692
1 4.15006 41.8226 32.8924
1 1.95416 5.10947 32.5886
1 12.9124 1.78195 26.5038
1 42.0694 23.8181 33.5362
1 1.89562 25.622 42.2928
1 45.6281 4.00531 36.0163
1 39.8054 12.4484 38.6218
1 9.53109 16.7382 12.3285
1 48.7175 12.2416 24.8316
1 47.2622 5.69372 40.6116
1 26.9101 25.9934 39.8959
1 29.7776 20.5692 9.4311
1 17.6725 4.70757 6.23567
1 39.4324 17.5821 3.9594
1 45.9719 33.0886 9.85287
1 17.9405 20.9606 45.0665
1 2.43577 30.5969 38.1182
1 42.5611 26.2003 30.0971
1 2.73451 13.5584 32.3014
1 5.0525 8.26038 7.89064
1 1.26947 9.07871 21.7135
1 18.2113 3.29692 22.9172
1 17.535 22.9479 18.1827
1 1.72192 38.4845 31.6004
1 24.3508 5.89183 3.16494
1 16.2035 24.5734 45.5485
1 47.1629 40.3657 25.8658
1 16.6437 23.7392 37.823
1 13.722 4.73001 11.2089
1 32.7342 13.516 23.1002
1 11.3998 15.8891 19.856
1 5.52725 17.1349 30.9149
1 46.8585 2.73958 16.9574
1 39.6485 11.7106 46.9155
1 11.2728 4.35138 15.3877
1 25.9588 14.3852 47.1056
1 47.5721 36.7191 39.2824
1 39.8696 38.3805 23.1272
1 6.77654 35.1684 12.2901
1 32.8604 37.8558 3.79372
1 19.2832 10.2549 8.28702
1 10.9212 18.3442 43.58
1 13.311 16.0396 29.761
1 1.61404 42.7414 44.0548
1 0.178977 36.9168 33.2549
1 2.7041 47.3833 12.3378
1 33.3359 43.6708 47.9629
1 8.84153 46.6109 40.8545
1 14.999 20.9681 6.309
1 36.8923 13.4596 27.6451
1 16.9661 8.98858 33.2873
1 29.768 44.4461 11.4934
1 9.74132 14.3691 46.0717
1 12.0156 17.6368 17.4836
1 3.77868 29.4892 24.438
1 42.0457 26.3721 26.6591
1 0.780945 48.6201 41.5545
1 20.5172 3.93555 34.5444
1 20.6286 35.7107 32.6829
1 22.5534 23.4735 47.7294
1 45.7942 15.9946 49.3219
1 41.9795 12.4527 41.4331
1 40.7352 36.3546 49.0626
1 6.0332 16.3369 24.9016
1 26.9433 3.18975 19.1152
1 18.5278 29.3489 1.72008
1 3.8151 43.9757 2.22124
1 11.6679 24.8479 38.9313
1 32.4348 11.6172 26.8181
1 38.2203 40.5944 3.5616
1 15.361 19.4301 19.4838
1 20.5468 23.3434 34.8977
1 19.651 28.0913 8.37136
1 6.22588 47.1516 41.7784
1 18.6116 40.8093 12.3356
1 11.5387 44.7625 36.9967
1 37.8391 48.6388 25.7894
1 16.8232 3.49383 36.3972
1 32.0116 34.6327 26.0565
1 15.7809 22.3387 42.3132
1 4.28248 38.8583 5.03775
1 2.75122 10.5069 47.6058
1 11.7051 4.01878 22.6544
1 33.3133 4.2538 38.3337
1 25.7378 14.6894 26.1554
1 1.43216 6.05713 28.625
1 21.0584 25.7191 26.0099
1 25.5532 1.55565 2.6928
1 10.678 12.1381 44.9809
1 12.6317 32.6122 35.0944
1 9.96197 42.3164 23.7263
1 48.4473 21.6094 21.9162
1 28.5129 7.85616 28.5578
1 35.9528 3.42408 30.0833
1 26.0787 43.6901 31.9195
1 40.3055 31.9754 1.98749
1 37.5556 20.1146 16.2359
1 15.5759 4.4565 4.01649
1 22.8009 23.7295 26.9231
1 35.1677 36.2946 22.8917
1 30.1414 2.84745 32.7106
1 13.7468 21.7551 21.0147
1 3.69468 41.413 28.2678
1 35.7221 7.5118 6.66317
1 45.051 10.8487 3.28671
1 27.8575 11.473 45.1128
1 47.6665 40.3811 38.8966
1 35.364 17.809 28.6715
1 48.9701 29.8227 23.4737
1 5.79714 29.8086 9.94304
1 22.9913 7.96167 4.22355
1 28.0757 28.6833 15.3267
1 40.2359 0.81011 18.8533
1 23.2575 40.0208 40.5935
1 11.6054 34.6855 31.0396
1 17.2108 11.2241 36.8261
1 8.55408 39.8155 27.3011
1 31.0806 11.9588 20.4862
1 21.8235 28.5487 16.0111
1 15.8851 8.4731 15.7054
1 6.9728 12.1237 9.05733
1 33.2599 30.2283 24.183
1 44.7501 36.9544 38.6782
1 3.38969 23.1183 31.9728
1 7.4247 16.1351 7.07638
1 6.0445 5.88031 33.0751
1 22.1408 12.9709 16.3201
1 32.374 45.7584 28.8445
1 24.1002 17.1691 25.9055
1 1.3358 48.1752 4.65431
1 18.962 47.6444 6.32262
1 44.2396 34.6502 47.767
1 34.6264 29.0141 28.9473
1 27.0001 37.2826 46.4089
1 7.97177 29.9052 3.63796
1 27.2048 23.5835 49.0183
1 19.7531 17.426 24.4658
1 43.1005 12.4334 1.70563
1 10.2543 28.6908 17.0254
1 45.046 2.83284 31.3292
1 2.18919 44.9312 16.7789
1 3.53963 8.99428 34.5841
1 36.4807 10.8907 0.0729679
1 47.8802 20.023 9.74677
1 33.4801 11.077 12.0386
1 6.36952 2.74748 40.142
1 48.8347 4.76875 29.4384
1 21.9941 32.1029 40.7059
1 44.245 37.409 26.0437
1 16.8416 6.6905 48.2941
1 27.1507 45.88 22.4771
1 44.042 29.1826 37.6398
1 8.60451 37.9762 23.0075
1 14.1846 14.557 34.3346
1 9.54551 31.8719 14.67
1 23.5246 4.29632 48.9496
1 16.4655 29.4061 44.6398
1 13.3181 29.6835 28.9205
1 13.6261 49.3476 35.1368
1 1.256 43.3994 40.2856
1 47.7508 11.9478 31.6724
1 36.6446 45.0905 45.0901
1 27.1631 1.91291 28.5454
1 7.83547 35.2745 15.4087
1 11.7749 12.0175 7.08701
1 17.7015 43.8683 39.0823
1 29.0806 40.6073 23.2226
1 3.22733 31.8334 46.6176
1 4.90396 37.4928 2.06008
1 0.166405 1.13389 48.141
1 13.2039 44.5567 44.5828
1 16.1229 37.7272 27.6873
1 20.1095 46.8968 15.6278
1 19.5822 2.25725 30.573
1 49.0251 17.512 45.0495
1 7.92133 42.949 34.8992
1 43.8207 14.6383 30.1581
1 2.54812 5.50493 44.1355
1 18.5358 26.0924 40.0091
1 13.6406 45.3623 32.1259
1 47.0515 5.81663 43.3227
1 4.24401 2.91542 47.3784
1 40.405 25.3916 1.1145
1 22.6995 15.8747 21.833
1 35.9821 23.8301 18.528
1 21.6723 22.8137 42.9061
1 4.1278 5.12119 28.5474
1 37.74 39.0833 8.80706
1 21.78 31.8104 7.29815
1 43.7541 17.1483 29.8045
1 45.6488 10.5054 38.6219
1 39.3273 22.6869 13.5281
1 38.793 42.2117 29.8385
1 27.14 31.6423 0.217565
1 32.3426 31.6313 37.8879
1 20.92 39.3987 45.686
1 41.9488 24.6197 5.03927
1 37.6876 41.8224 7.62368
1 34.0014 6.28007 43.2189
1 49.085 38.3368 37.9158
1 28.9043 18.4732 17.0695
1 13.7493 6.05722 25.8371
1 37.9567 32.953 36.9528
1 3.49657 5.18262 39.9807
1 7.85193 44.3434 20.8521
1 36.2154 45.8365 8.26554
1 5.49268 7.65744 26.8215
1 23.6649 30.6819 30.5248
1 36.7149 26.8802 6.14277
1 0.0424568 12.6757 33.0135
1 49.4242 15.8563 26.5215
1 7.98279 42.1301 25.5489
1 38.9119 16.5087 32.5758
1 26.2173 2.99038 26.281
1 4.36739 26.1745 43.1304
1 6.09804 26.7985 10.6014
1 13.0001 45.4939 24.0535
1 6.92255 46.0181 22.5771
1 38.3395 1.59066 12.8998
1 6.13885 8.13641 3.41303
1 4.12267 30.7905 5.30737
1 8.95651 4.33593 40.2866
1 36.5536 48.4292 1.86176
1 49.4669 15.3975 46.854
1 41.2024 26.8381 43.4922
1 33.044 23.8302 24.5895
1 36.9862 32.2943 19.8881
1 5.02216 30.6324 48.2103
1 45.136 30.8546 13.335
1 22.5581 45.4185 41.8508
1 2.82766 1.6557 21.3375
1 31.6865 17.7797 34.9125
1 40.5967 4.52225 23.9306
1 22.7842 13.5577 41.3319
1 15.7206 49.1773 29.7039
1 10.4419 22.4231 21.0906
1 1.88076 3.00839 25.3437
1 32.4654 36.5247 17.2474
1 8.97503 1.90204 37.4323
1 9.78349 32.4135 3.40516
1 45.7668 1.09577 1.13974
1 44.0416 -0.0339299 36.3877
1 40.3317 40.6843 48.4953
1 40.4512 11.6967 1.89225
1 11.8605 17.9946 48.0696
1 0.667034 35.0223 30.2349
1 11.9837 20.1242 12.8494
1 25.68 47.32 6.76587
1 5.17162 39.9743 41.2173
1 14.6028 47.2351 39.8368
1 27.3144 12.5478 8.52019
1 14.8754 7.62093 36.8582
1 6.90977 21.9978 12.301
1 3.57944 5.41079 1.58166
1 24.7773 23.8763 2.33856
1 35.2586 35.1556 42.5454
1 39.4415 29.9099 18.7119
1 11.4526 44.9916 14.0452
1 46.4132 12.8681 20.9428
1 48.3488 45.8037 25.6794
1 14.3164 34.1364 24.4341
1 47.989 9.09477 10.5959
1 39.6431 23.0413 18.199
1 28.9332 25.5536 23.8726
1 16.7206 17.6321 8.44278
1 11.2774 49.128 46.1605
1 16.7226 44.8017 5.14971
1 41.9506 48.776 15.0263
1 13.1727 30.1306 24.1216
1 35.3589 4.03789 25.9234
1 14.5918 46.6828 44.6849
1 42.9942 34.1059 33.2038
1 6.46603 21.7613 38.3588
1 30.5048 35.2597 37.8823
1 2.40674 13.0319 14.04
1 42.8573 4.89609 47.5066
1 14.9505 36.5359 47.022
1 13.8604 37.7466 11.6926
1 31.2236 4.53649 10.4836
1 46.8888 8.32092 39.4334
1 4.50866 43.7697 27.4732
1 19.9321 32.7118 28.9694
1 4.69599 46.8478 48.9773
1 30.9362 10.291 4.97473
1 20.5797 37.8823 42.99
1 36.1341 7.29966 28.7831
1 9.66702 43.0699 32.6459
1 47.6243 5.64795 23.3439
1 31.8676 27.4096 7.30319
1 5.63888 16.0654 46.1635
1 48.5334 27.4577 4.99667
1 27.4185 49.3596 13.3325
1 2.84228 47.3505 32.2588
1 21.2937 12.3072 30.6625
1 13.926 18.6977 0.162095
1 8.25723 6.46604 7.50387
1 39.7178 46.8542 45.1368
1 47.0336 47.829 41.2337
1 24.8174 19.9292 6.62277
1 4.64976 40.0658 30.2735
1 47.4224 47.4237 17.2983
1 16.1909 27.3942 42.3399
1 1.85216 41.6609 48.4045
1 3.95059 19.9838 14.2976
1 44.4083 26.1367 39.8762
1 8.38971 3.34221 25.1425
1 48.2444 47.0282 14.5098
1 45.8836 6.76476 3.72582
1 24.9782 35.0384 37.6936
1 7.02778 7.28427 24.5588
1 46.0678 18.7199 3.78385
1 16.9927 40.1666 48.0808
1 40.6192 20.9613 7.03875
1 12.7366 3.66349 43.4422
1 7.76381 20.0838 18.1969
1 23.715 13.1898 0.686767
1 35.2173 28.9588 38.9007
1 41.347 12.851 23.1055
1 7.94778 37.9182 37.7207
1 40.4568 11.2185 25.2395
1 0.85773 8.98745 32.0258
1 17.7486 0.199979 20.9044
1 38.2802 44.0667 26.2635
1 9.24257 17.6366 21.7184
1 4.20299 15.7702 37.2413
1 43.4038 9.6184 5.67909
1 9.77833 30.5024 30.7408
1 30.8546 41.0539 38.6532
1 25.8598 40.5072 26.3884
1 15.0475 46.3145 8.25649
1 32.2446 6.82014 34.1086
1 48.884 43.1566 38.3501
1 25.4419 6.97719 31.3461
1 28.7727 35.3553 46.2289
1 8.40313 11.4855 4.51977
1 15.8414 10.7261 39.6071
1 9.49372 45.444 3.17911
1 32.7562 37.4363 30.7563
1 12.9843 12.5334 32.4123
1 27.592 42.3441 22.0206
1 27.8792 32.5251 32.1808
1 13.9611 43.8806 22.0969
1 24.9814 6.45203 10.3982
1 15.9258 17.0069 1.21121
1 46.6987 40.451 15.6989
1 37.5465 31.2869 17.1683
1 10.4409 23.4667 25.6814
1 44.7555 29.8547 1.39676
1 48.9321 20.4815 44.2594
1 2.1366 10.4996 12.9348
1 35.3979 43.847 36.0132
1 22.2318 45.236 13.6092
1 27.0506 37.0295 38.1022
1 42.4866 39.0065 22.5523
1 22.2974 33.8164 5.77248
1 26.4697 13.1245 41.9042
1 26.1595 31.9203 10.9467
1 5.9726 13.2824 34.0571
1 10.6504 45.3687 48.2166
1 7.1964 18.1536 2.20621
1 9.78847 33.9099 16.7402
1 1.63618 28.9591 9.17397
1 9.95256 0.980447 18.1417
1 44.2423 42.6981 21.486
1 47.6058 8.99181 3.77001
1 41.7261 33.4511 16.3885
1 12.9183 26.271 36.569
1 23.6432 21.4982 3.40969
1 23.2329 3.85153 13.0484
1 23.1407 15.4303 3.3935
1 8.00757 44.7205 7.62874
1 6.1017 44.889 12.8221
1 27.4279 22.3153 8.66912
1 48.4594 22.1246 17.5984
1 35.423 29.2127 33.0264
1 23.0754 37.4837 49.2271
1 18.6083 18.6962 47.2639
1 0.662167 8.98286 14.3086
1 31.0977 9.2595 34.8518
1 21.8914 0.160782 14.6267
1 48.6467 14.433 18.0326
1 41.9581 36.311 13.2515
1 22.2143 25.1617 33.4055
1 42.9074 22.0433 6.32049
1 36.1779 6.77593 20.8269
1 34.1629 19.8219 46.3341
1 49.5094 17.7006 28.219
1 0.52336 48.8103 11.2196
1 8.74425 28.8259 42.5102
1 9.01619 31.3728 8.25612
1 18.9867 7.57329 8.09192
1 33.4543 13.6912 18.2013
1 10.5597 24.4213 32.8709
1 18.8729 44.0644 31.7861
1 45.9491 34.8815 17.2015
1 46.26 5.0403 20.6066
1 27.5236 33.1232 43.0549
1 5.68332 4.9024 38.4997
1 33.7813 31.5402 44.0886
1 0.0807384 25.5242 37.4781
1 21.9513 46.7144 0.437095
1 23.1251 49.5526 25.1989
1 44.1255 3.51193 40.8143
1 32.6085 34.7746 30.1416
1 4.26632 18.3577 36.2825
1 31.0512 22.6978 14.7927
1 38.0208 28.5826 36.2403
1 37.1694 29.3391 1.89845
1 13.9287 24.3672 11.2507
1 24.3295 28.9476 33.9926
1 29.5744 13.7087 1.09089
1 16.8973 0.605082 27.2995
1 35.3812 29.9431 15.8227
1 49.2518 12.5151 5.40837
1 5.42606 1.23467 10.7882
1 3.82675 29.4388 19.5098
1 26.0014 1.1724 37.5189
1 11.6319 5.14105 4.71477
1 27.4464 32.2864 39.3416
1 22.2589 3.52387 7.67738
1 33.8779 48.647 3.53008
1 19.1066 15.6775 4.5614
1 27.476 2.20478 16.5846
1 13.1017 24.9613 6.6177
1 13.0227 8.22658 19.914
1 37.1254 6.4113 23.8208
1 40.2075 9.76503 13.2682
1 22.167 33.0705 11.7275
1 44.4008 17.0428 15.7029
1 18.8768 24.6407 0.855073
1 39.0563 19.0309 18.0648
1 26.6098 12.4115 27.4383
1 18.1397 5.13032 37.8352
1 44.6294 33.4295 20.6792
1 26.605 44.5357 2.78557
1 9.96591 41.8894 45.774
1 8.3996 35.5003 22.6519
1 42.7279 28.1903 5.3689
1 7.09273 34.4448 49.4797
1 49.2836 6.92837 25.5405
1 6.9173 40.7641 10.2858
1 30.7952 28.3047 46.4588
1 39.7433 43.6834 10.9006
1 13.4127 31.1398 3.08139
1 10.5402 28.1038 3.17656
1 20.7409 19.9857 19.6164
1 37.3972 12.8264 12.2099
1 8.18528 5.52081 20.2951
1 42.8428 23.6759 0.116916
1 4.47381 24.6246 10.7068
1 47.0746 28.8528 0.81941
1 23.8219 45.0194 31.551
1 44.2915 18.1817 46.3253
1 34.0002 41.0685 48.7151
1 48.4267 23.0489 25.3887
1 11.6216 47.9051 7.47927
1 33.8063 28.9228 18.0967
1 40.8925 36.2015 37.2156
1 47.5109 18.3086 36.2642
1 7.84383 45.4169 44.1459
1 22.1041 19.9707 22.3621
1 6.76426 0.266161 17.5704
1 8.76925 13.5544 31.8711
1 38.3101 5.99475 13.4748
1 36.5162 17.2412 6.8518
1 13.6293 1.99468 10.0919
1 7.49005 4.70883 3.62907
1 0.329293 12.9977 38.4774
1 3.64099 5.9873 34.5945
1 5.14982 10.0115 46.6833
1 24.613 35.9811 20.9485
1 36.5571 21.2878 1.48534
1 14.8662 35.8301 7.21196
1 39.8655 27.7356 5.14819
1 41.604 16.2829 42.3767
1 33.878 19.951 1.8961
1 30.6277 34.2512 10.1263
1 0.362693 28.9402 47.9546
1 1.86508 14.9439 41.6966
1 43.7362 33.5502 27.9013
1 28.0924 19.0961 5.24458
1 24.7251 30.5409 13.4065
1 11.2829 48.1112 10.3572
1 10.0769 36.2531 34.4967
1 1.93534 36.3012 28.093
1 18.6515 34.2891 14.6543
1 29.0614 15.8916 32.283
1 22.9914 15.9046 33.9962
1 12.9002 6.08488 48.6204
1 14.4995 33.1822 43.9737
1 1.82329 36.3818 39.9527
1 7.10387 48.5965 22.0273
1 39.709 18.4852 44.561
1 48.2991 9.53521 25.9048
1 43.9549 25.7797 24.7308
1 11.2437 48.3819 43.6773
1 10.942 32.7993 0.924442
1 22.5845 32.4424 25.0288
1 12.5427 12.2752 42.5714
1 31.1623 39.1588 -0.163897
1 3.72586 41.4203 6.84513
1 8.08423 18.7864 24.1269
1 4.29521 44.4432 9.65794
1 44.4796 26.0659 48.9324
1 47.2367 30.173 21.4116
1 1.41626 45.6871 28.9362
1 44.9734 31.59 28.7284
1 39.316 36.1785 32.3918
1 40.137 9.41847 34.6155
1 31.4487 34.9081 43.895
1 7.99589 21.9621 2.78261
1 38.1871 39.0075 32.6287
1 37.339 36.2868 39.5057
1 9.27825 43.6407 5.64495
1 6.19547 49.3406 14.8355
1 30.9211 26.561 1.87424
1 7.36351 1.90449 3.50865
1 15.9436 41.6677 12.2138
1 7.27659 46.4276 37.3056
1 4.75101 5.18239 45.7076
1 47.5513 7.07312 7.85119
1 1.91029 7.34991 1.32277
1 17.7497 5.13119 2.33905
1 23.4823 32.3003 27.2954
1 23.0352 19.1842 42.4746
1 44.2721 42.5817 48.5152
1 11.0963 8.47366 36.3709
1 7.3962 25.4614 24.6928
1 36.9297 35.3765 6.43422
1 46.501 27.0553 45.4571
1 20.0344 29.1456 36.003
1 17.7508 1.20553 46.1749
1 6.14098 28.6599 37.9178
1 6.2962 23.1337 9.09534
1 3.62535 23.3132 0.933444
1 46.8796 24.4037 17.7851
1 24.5779 18.5648 17.0348
1 37.8722 10.4871 39.8626
1 4.0257 37.3849 30.5095
1 13.1964 27.5722 20.3751
1 17.4686 6.83981 20.4782
1 40.6289 28.6843 35.1477
1 41.8045 33.1658 3.8416
1 11.7685 47.3257 20.046
1 37.6634 19.8923 20.0847
1 35.7557 6.63237 13.8108
1 20.1245 38.1833 19.8602
1 34.4148 27.8054 47.8559
1 2.40857 28.5322 44.3835
1 49.0114 35.3927 9.17138
1 15.1747 28.5867 10.7269
1 29.6574 31.7078 40.7593
1 2.87164 29.8416 15.7608
1 33.4313 17.7172 30.9836
1 1.38914 14.5504 5.65025
1 2.62516 20.7447 10.0151
1 49.3312 38.3753 16.2283
1 45.1469 24.0668 42.2018
1 19.6926 2.98191 48.7306
1 7.3153 27.168 13.0842
1 15.079 49.3724 8.59481
1 24.8295 33.3667 17.8036
1 48.887 0.160133 31.6528
1 34.673 40.1217 13.2482
1 5.83003 37.1838 41.2623
1 4.64122 7.26402 23.1619
1 45.7005 41.0156 19.5318
1 21.8761 42.28 29.7769
1 19.5598 26.2335 28.5868
1 25.9122 30.8255 42.0667
1 42.3322 0.0569761 20.5254
1 13.0528 2.57158 14.8999
1 45.4244 31.1098 31.269
1 49.2349 25.2468 21.2359
1 6.58721 19.9976 21.8409
1 44.3521 36.405 4.90265
1 7.15454 46.8607 31.5414
1 31.8297 14.9642 29.4986
1 5.68988 32.1166 29.7472
1 0.991255 24.3374 44.3855
1 0.905227 17.6757 38.697
1 25.5221 31.7268 47.5363
1 45.0835 42.4852 35.527
1 16.7991 49.5201 41.6857
1 13.6679 8.98971 48.4383
1 39.0007 7.69245 40.3704
1 25.6536 36.9587 48.8707
1 36.2572 9.07348 10.247
1 8.94629 34.3471 7.40991
1 0.820183 43.9374 31.0175
1 4.96803 11.7412 11.2588
1 12.2896 37.4417 0.166759
1 11.6905 6.71224 10.7181
1 9.55926 33.8172 12.2565
1 44.3177 21.3438 20.3998
1 22.3489 10.3744 21.9287
1 11.0353 18.0095 37.3354
1 46.8803 22.5221 43.7262
1 33.9091 47.3005 11.2684
1 5.97855 0.746259 47.2638
1 11.3843 38.0997 23.0741
1 29.483 38.841 18.8512
1 3.77632 23.448 21.2028
1 12.1872 7.90527 41.887
1 11.7539 14.8365 13.5069
1 28.7591 38.0901 16.0204
1 23.921 23.8388 9.85132
1 36.9313 25.484 29.7986
1 42.8071 45.8168 1.13898
1 14.7641 40.4439 0.451211
1 22.9876 34.8338 46.3094
1 5.89457 16.8441 41.9475
1 12.8844 40.2489 26.6771
1 10.6257 4.05188 2.30342
1 22.9876 22.5059 22.8202
1 45.8854 33.6525 43.1182
1 18.3799 45.2723 42.7572
1 25.7493 41.7976 46.2342
1 26.3846 48.1876 24.2739
1 17.3335 32.9445 16.9355
1 15.9605 39.0129 2.34355
1 17.9197 34.5607 28.8502
1 13.1962 41.5209 15.4649
1 46.697 45.5984 10.5042
1 5.40348 9.19709 1.1169
1 22.1857 25.4072 46.2043
1 25.039 35.2939 29.3022
1 8.57143 25.8304 2.17939
1 1.63896 16.0963 20.5966
1 4.75942 11.2228 44.2104
1 2.11415 32.4824 4.22245
1 5.26688 18.0546 13.4393
1 12.4774 11.875 26.3923
1 40.2873 38.6894 15.7943
1 5.76719 27.4165 33.9335
1 7.46293 13.6935 46.9486
1 9.21813 45.9438 19.1425
1 47.6531 42.0226 0.200833
1 33.2679 28.3346 2.32866
1 1.16796 24.806 32.4295
1 31.5805 44.8322 21.2507
1 8.73604 7.48504 47.4064
1 14.9347 29.8507 48.7225
1 16.967 40.9194 5.82026
1 26.9669 4.5 11.1718
1 30.2183 43.6914 25.5978
1 42.6987 36.7049 1.33159
1 16.9185 40.0747 29.2707
1 5.89101 5.8609 15.6484
1 9.97721 27.9244 7.28805
1 37.7716 41.1402 36.2797
1 40.3109 7.28484 42.8881
1 37.8538 8.36955 32.981
1 21.0935 39.704 31.0257
1 20.6538 46.0213 22.5745
1 8.70497 23.7526 15.7842
1 11.3175 36.2158 27.1516
1 22.578 18.0372 35.5446
1 47.8312 3.82517 33.9981
1 41.0578 8.13277 15.2864
1 32.0752 44.9458 37.4301
1 37.0402 13.9429 38.3789
1 46.7894 37.608 25.3586
1 22.7493 13.2692 35.357
1 35.8799 26.7467 33.9432
1 12.5221 39.3305 37.2997
1 29.083 11.9859 47.3822
1 46.4195 30.7362 17.1702
1 44.9106 28.5879 25.6172
1 36.4748 29.0953 46.7702
1 36.3462 46.0579 22.7
1 40.1964 3.32312 33.8403
1 29.3308 6.88002 37.8001
1 17.5203 27.3386 14.5486
1 18.8954 17.9251 20.6548
1 12.9048 27.3486 27.165
1 47.127 35.32 1.89545
1 17.9635 40.5982 26.7267
1 42.9584 21.6496 26.5078
1 16.0948 30.9032 21.4665
1 30.0467 19.5512 21.3679
1 38.1006 46.5345 13.3496
1 15.5379 22.9635 30.6661
1 7.34648 17.7201 44.5413
1 31.8293 46.7654 1.68789
1 31.583 12.4025 8.99205
1 44.2393 33.6195 24.1224
1 40.2718 29.978 48.1099
1 32.1218 41.7914 19.0277
1 26.8424 17.7989 21.9015
1 41.2463 13.7718 19.3771
1 10.9744 11.8357 22.0025
1 7.98658 40.7941 17.0078
1 23.3964 43.9093 45.9227
1 24.5351 11.781 21.7263
1 47.1867 44.7499 39.9307
1 25.2909 28.6793 31.4391
1 33.8097 31.8547 41.3609
1 48.4244 2.83619 10.0608
1 22.27 29.8609 23.9906
1 30.0655 42.5136 44.8479
1 31.6136 6.54361 2.6695
1 4.53038 1.37191 3.88704
1 43.0602 31.8568 9.08758
1 5.02273 36.4158 27.9202
1 11.5849 36.8959 43.4027
1 23.6835 46.8144 46.1022
1 18.9517 35.1032 8.78846
1 2.1914 34.9313 5.83636
1 11.4842 1.9325 4.31001
1 27.8354 22.1845 39.6113
1 5.2501 21.8059 2.60491
1 14.7566 36.0388 0.241822
1 49.0176 29.8895 11.8915
1 1.59308 23.9355 19.829
1 0.290231 27.98 18.8389
1 49.3558 38.6688 4.40302
1 27.6873 12.7749 34.9694
1 33.9677 8.96048 42.9344
1 33.57 19.2998 16.0949
1 43.5488 27.7987 9.33665
1 5.65127 22.585 43.6367
1 48.0308 17.1173 3.15754
1 40.9477 42.537 1.08701
1 36.8365 23.8036 27.0851
1 0.258353 21.6791 19.5685
1 24.077 10.3688 3.38095
1 29.8242 47.5396 37.5087
1 34.3527 21.3601 22.7156
1 45.9131 37.6801 34.3924
1 29.5209 7.07205 30.9871
1 42.3641 12.0742 46.4081
1 19.8761 9.91915 18.2154
1 7.33074 29.1014 45.1389
1 24.0505 29.0273 0.420357
1 39.9282 37.4708 4.8349
1 17.1412 4.15379 25.4619
1 6.01264 33.0626 24.7427
1 22.948 16.7616 15.5284
1 13.6457 33.3368 1.28346
1 16.7261 34.1862 35.0775
1 17.7118 30.6136 48.8798
1 1.64201 30.8719 20.7951
1 22.9114 39.9167 22.9409
1 12.2475 21.7164 16.9415
1 7.84894 29.4452 6.56329
1 16.633 16.7228 36.8515
1 41.5447 4.62843 21.5523
1 2.21001 10.0952 43.541
1 38.0715 3.6661 23.6536
1 16.3216 28.5587 23.1625
1 7.82995 18.0641 36.2901
1 39.7914 34.1233 40.619
1 3.41365 28.6794 11.2688
1 35.6417 44.402 5.08975
1 7.78259 43.0631 11.7134
1 48.9913 49.0128 45.7673
1 36.3874 34.5398 18.3047
1 15.6947 46.9752 3.36152
1 16.8753 11.9613 0.82709
1 4.20021 31.5239 8.24295
1 43.3074 40.0283 11.6312
1 46.6624 5.86884 48.3283
1 6.60038 45.3685 34.8236
1 36.0711 49.1184 46.6142
1 17.3835 7.14283 11.6875
1 1.02954 20.7071 48.1655
1 36.1851 40.0513 38.3792
1 24.5936 32.5733 21.0875
1 30.516 46.3787 31.1056
1 0.669669 28.1267 21.7427
1 47.14 18.6692 46.9508
1 46.3159 39.4805 1.81003
1 46.6687 23.8109 3.1353
1 30.0162 1.21681 28.455
1 35.9675 40.3017 26.7042
1 26.6335 24.4892 9.40972
1 6.65824 1.70796 31.4389
1 25.0402 29.6218 9.11748
1 13.4643 42.5845 27.5685
1 44.3466 8.91015 20.168
1 38.3999 10.3469 24.2474
1 5.84011 43.3761 19.5399
1 10.8564 49.6854 23.3959
1 15.7024 41.9504 25.7463
1 16.6131 31.0818 26.8032
1 3.40915 48.3749 37.3234
1 8.06802 32.6851 38.0947
1 0.955597 41.897 29.0387
1 19.5371 15.3908 33.8883
1 2.81583 3.37849 4.09684
1 0.754727 47.5758 7.45839
1 16.3919 31.953 2.03968
1 48.6284 16.6367 20.2785
1 22.2423 16.5857 27.6556
1 1.37703 9.38158 6.86799
1 26.408 49.231 19.69
1 4.74248 25.2376 30.3941
1 18.7512 37.7342 49.3933
1 44.694 38.0112 41.4182
1 15.4761 5.9024 33.2595
1 36.3928 30.9718 10.0836
1 42.6207 33.203 35.7529
1 43.3136 30.0456 43.5285
1 38.3382 42.7975 1.59679
1 12.2484 4.33106 27.2964
1 6.28488 39.0165 15.6183
1 48.822 35.3228 45.876
1 24.8693 28.1138 44.0073
1 36.1056 19.7048 7.8088
1 1.95701 1.79705 46.2921
1 15.7102 6.50422 27.7194
1 35.2554 38.3566 34.5159
1 26.8228 22.4263 14.6534
1 9.11004 40.7746 43.2141
1 20.0863 11.9931 4.69398
1 29.963 18.6038 3.46015
1 8.0573 32.743 28.903
1 39.2175 47.1837 39.1413
1 12.4708 11.8178 2.647
1 31.7716 32.455 13.0284
1 40.432 44.5532 5.29843
1 8.93267 16.0665 28.4321
1 34.4505 3.44238 14.4654
1 26.2792 42.6773 40.2692
1 18.8643 7.49024 27.8644