4096
 Atoms. Timestep: 260
1 10.4359 29.6592 11.971
1 27.3003 12.6852 13.4402
1 35.9849 2.3355 26.8642
1 24.2408 41.9375 15.1626
1 47.549 4.20387 19.8977
1 11.1483 44.6701 37.9037
1 25.5244 36.425 49.1468
1 35.4005 39.9498 17.5868
1 3.08439 45.4157 34.0097
1 39.4008 6.34343 20.7113
1 26.8526 11.7967 6.14888
1 40.8151 43.1477 35.1766
1 10.6543 49.4306 5.20945
1 1.33858 16.4283 27.8328
1 36.2104 27.1312 4.31085
1 20.6494 1.29148 15.7465
1 39.3258 9.05472 41.4827
1 8.77393 19.0174 5.91064
1 16.8915 8.33399 21.83
1 7.13277 29.37 7.26707
1 44.6941 7.33 6.14247
1 10.9391 27.8498 13.9187
1 2.95149 36.0412 38.6041
1 1.06367 16.2388 23.7048
1 8.63469 12.4676 39.0975
1 48.9494 32.5378 17.2404
1 7.99149 9.4039 20.6884
1 9.59449 9.96163 18.4582
1 8.52744 11.4833 31.3311
1 8.23493 0.354305 41.1756
1 25.1833 45.0228 0.0370558
1 10.039 7.98999 16.1405
1 34.9691 4.18231 10.2929
1 4.69059 26.5095 18.0342
1 26.037 49.1016 43.5874
1 4.65807 38.8197 18.1567
1 6.03858 19.4781 5.66603
1 22.4168 32.4033 44.5059
1 4.01479 35.3424 10.7949
1 42.0896 17.5397 15.5128
1 33.7667 36.737 31.1506
1 36.2045 26.477 20.3472
1 4.02533 43.5835 15.2607
1 40.0084 39.5213 46.9434
1 4.2131 10.7398 12.7365
1 15.0549 25.8621 37.0324
1 38.9253 30.3502 28.6002
1 2.99433 31.2571 13.8478
1 6.61139 3.59051 29.613
1 16.6582 38.5197 8.30988
1 18.6487 4.98152 23.2119
1 27.2951 13.3608 46.4426
1 16.254 16.1645 37.2058
1 9.59727 20.7378 43.7174
1 36.0225 18.6762 5.11123
1 37.3666 28.7783 31.9251
1 31.0239 21.9383 15.3867
1 44.7423 46.6677 34.4647
1 32.7008 2.30859 43.735
1 21.0321 17.0865 7.05508
1 34.2466 35.8013 38.5169
1 10.0305 41.2888 34.1809
1 47.1479 45.1296 1.95932
1 4.36384 12.1206 44.9927
1 36.4146 43.6952 5.35977
1 4.4266 1.88324 15.1693
1 37.564 12.4097 44.6128
1 45.0597 11.6197 17.837
1 21.0629 22.4526 42.7427
1 47.7155 21.1015 7.58261
1 25.9119 3.44832 29.8386
1 30.241 21.3923 27.2809
1 21.0305 0.0320617 27.0232
1 30.9181 33.3718 2.29594
1 32.9904 2.6226 19.5713
1 9.79094 49.7118 27.9541
1 42.5201 35.1333 7.16355
1 11.8039 32.7257 22.5986
1 24.7808 14.6871 19.3723
1 3.92898 23.4668 3.72891
1 34.0485 7.10763 44.8971
1 30.7049 49.5599 28.2964
1 12.3814 4.9501 11.6031
1 5.72887 48.9145 12.0549
1 30.845 19.3307 18.7349
1 21.252 47.1082 41.2898
1 18.7352 42.2255 14.0917
1 6.41397 39.3861 3.40344
1 3.34866 17.4208 12.7693
1 38.4163 36.1445 32.6666
1 23.364 6.14591 26.5019
1 12.2834 37.0384 21.1244
1 36.7524 47.8212 1.96848
1 38.9235 0.874194 19.4047
1 15.4501 11.0608 29.4752
1 6.77414 14.5908 12.817
1 20.2661 2.65221 34.4422
1 9.25801 48.7232 2.98781
1 19.2784 10.5719 43.8676
1 6.8437 36.7122 40.483
1 34.671 20.6524 35.411
1 21.5192 18.252 44.9949
1 18.2226 25.3365 10.5092
1 14.1748 38.3968 17.1491
1 9.81201 5.38494 18.2046
1 40.0182 33.8855 19.7216
1 48.8025 18.4544 2.15583
1 13.6078 4.02186 4.86141
1 36.1551 7.25791 46.8569
1 12.3717 41.2163 45.6219
1 44.3797 36.4521 18.8339
1 19.8319 44.1516 16.1026
1 33.8313 31.4597 29.7118
1 1.65945 36.4117 43.2045
1 27.1014 22.9931 7.42662
1 24.169 20.1953 10.9154
1 17.979 22.0834 47.2633
1 43.8811 0.495407 34.8578
1 49.3202 22.7741 32.0456
1 27.6152 47.5647 16.7789
1 11.4647 20.6407 0.675291
1 38.2058 6.88569 8.61391
1 38.8067 16.2995 41.2153
1 15.659 29.8297 44.8052
1 15.6865 46.7901 34.2747
1 45.6407 16.7594 13.8715
1 38.0071 34.2242 28.2587
1 1.94274 15.8873 6.59819
1 30.6745 1.56973 40.7483
1 44.2428 7.24951 1.68171
1 17.0975 37.5846 20.727
1 37.8341 24.384 23.2465
1 18.0346 8.20745 0.482989
1 16.9584 35.0004 3.81489
1 3.18222 2.57993 28.2571
1 43.5539 34.1729 14.4983
1 5.8131 21.7089 8.60468
1 19.8296 42.1944 20.4232
1 35.9901 4.54228 36.8999
1 6.4194 31.3228 19.5648
1 18.2203 17.6446 38.2064
1 36.6052 33.0766 30.1992
1 12.9494 14.3173 46.3443
1 26.3636 4.92998 14.1078
1 43.5669 32.3353 27.2822
1 0.395202 44.1273 14.339
1 12.1538 13.4733 49.3659
1 44.278 44.5951 40.7833
1 7.03329 22.1918 43.3901
1 44.8105 29.0686 7.0939
1 11.4567 17.9512 46.3529
1 40.1242 2.01385 21.7512
1 14.5109 13.6662 22.6732
1 1.64138 46.2475 29.799
1 8.08503 26.4045 21.42
1 46.9777 3.86036 15.7656
1 35.6152 12.4589 30.6391
1 24.1242 9.84627 24.8855
1 34.5212 1.5211 9.53994
1 39.571 11.1089 4.54175
1 31.2264 -0.0162926 44.6584
1 12.5725 5.70101 8.54175
1 43.8237 18.0652 32.8195
1 31.9389 14.242 12.9591
1 42.3801 0.757699 13.0236
1 44.5167 49.445 10.9916
1 41.0579 11.8596 12.2628
1 42.5113 29.8253 26.5504
1 33.4287 40.2426 11.7911
1 18.1659 12.0224 40.6098
1 42.3197 6.73405 26.2514
1 33.1554 31.8055 40.622
1 14.178 6.40238 23.5206
1 24.3068 26.1064 36.2428
1 33.2463 36.4033 13.1727
1 21.8568 36.8994 4.43012
1 11.5314 2.22316 5.86405
1 29.2161 1.9504 27.731
1 13.9582 31.0627 32.1989
1 8.86768 33.618 37.3745
1 47.9158 20.2744 20.4871
1 9.47968 10.2424 7.9811
1 36.8935 39.4809 32.8075
1 11.7154 23.6714 46.4889
1 14.5206 3.952 43.8254
1 30.93 20.73 31.9878
1 24.1186 14.546 35.1107
1 10.174 30.7047 18.1374
1 27.122 44.403 38.7101
1 1.31687 9.0324 9.8846
1 48.9627 35.157 37.223
1 14.2795 34.6738 38.4858
1 32.3996 31.1276 45.6504
1 7.92243 45.4294 48.4111
1 48.4311 5.51914 22.0055
1 25.274 5.38585 46.0355
1 48.8466 5.71992 7.83179
1 38.0438 25.0193 15.0743
1 38.6486 24.1047 31.6877
1 0.301897 20.9382 24.3026
1 27.6752 14.6779 23.9584
1 11.4954 10.2027 4.58049
1 11.8834 11.7842 11.7458
1 5.89329 5.78465 21.4382
1 38.0778 13.2435 0.9593
1 18.8609 42.5531 17.8646
1 15.3716 16.529 9.75102
1 43.4949 33.2654 9.40131
1 27.932 5.47253 16.5734
1 23.8271 30.2281 18.9655
1 38.3337 42.7872 25.7242
1 43.6634 1.03306 18.6394
1 38.6893 20.9741 44.9328
1 48.6382 44.8952 46.3001
1 19.4252 38.2412 5.1983
1 2.88201 5.1483 17.9562
1 11.3194 27.6006 24.5344
1 28.3606 44.4736 24.7554
1 19.1333 10.6735 10.7135
1 0.746892 6.73467 4.03056
1 25.4821 48.2391 20.7189
1 8.94569 44.7763 2.12491
1 29.6608 0.0976257 46.6986
1 19.1189 4.23859 44.1471
1 25.6414 34.5263 14.3074
1 21.6628 18.941 11.0415
1 31.7017 26.4544 29.3447
1 4.8843 14.3169 26.1172
1 15.2507 11.259 4.9095
1 21.3152 41.4682 4.40896
1 20.6504 19.7702 8.01008
1 28.056 32.7733 10.3809
1 27.2935 26.7371 17.0332
1 17.7428 8.55346 24.4429
1 31.7349 17.3175 44.6763
1 33.5354 39.8595 19.1194
1 8.48324 20.1814 36.0597
1 49.2669 2.34234 4.33314
1 48.9666 25.616 3.22016
1 43.6909 34.1537 44.4402
1 34.37 19.8857 9.21321
1 23.2484 42.1897 39.7831
1 29.1885 20.629 34.1721
1 5.33214 12.091 7.09026
1 15.6502 44.0647 47.2618
1 9.87262 16.5397 25.1596
1 26.6614 36.7651 18.6293
1 15.6806 35.4787 43.5241
1 38.9275 3.59839 11.4749
1 23.5149 9.12484 27.7281
1 38.0479 36.0418 47.9566
1 20.4318 21.1552 46.4787
1 42.3723 48.4268 17.6874
1 19.7403 13.5052 43.1832
1 7.00658 15.1926 21.0605
1 14.2785 42.3977 49.0506
1 45.7622 17.0381 20.6512
1 46.5224 5.12527 6.79996
1 37.6626 25.021 0.83336
1 48.7281 45.3391 40.1083
1 20.1731 11.3799 22.088
1 13.6845 9.45088 41.9023
1 34.9039 47.1058 34.6248
1 0.302231 6.81861 46.135
1 46.1914 41.1594 9.92477
1 1.60275 48.6834 14.3065
1 27.5002 17.3437 14.0475
1 17.3181 35.8673 41.899
1 12.5139 43.248 10.8689
1 47.4255 30.3113 31.7497
1 13.8949 37.9075 27.3897
1 34.6446 18.23 27.3473
1 42.1941 36.8201 9.21259
1 11.7218 17.7289 10.863
1 13.8987 26.2127 1.2517
1 46.1686 31.1361 2.5869
1 0.336976 39.6869 33.2189
1 37.6907 20.0875 40.6483
1 33.3837 45.0165 47.0995
1 1.07064 43.7398 40.564
1 22.44 10.4114 42.7671
1 19.9702 25.5583 19.3307
1 1.54108 6.66139 41.5315
1 12.7325 23.9016 33.5272
1 21.2129 1.26062 9.92425
1 11.4308 25.1839 13.4061
1 11.5187 15.6444 5.08344
1 48.6696 43.8129 28.565
1 44.9783 34.547 20.7192
1 24.7077 27.3748 29.1683
1 37.6339 18.8892 47.6564
1 1.42024 28.8593 1.10783
1 36.9331 23.1775 34.3356
1 5.0511 44.2407 39.3172
1 36.5753 17.7314 42.5148
1 34.97 30.92 8.44617
1 43.818 7.13475 13.1813
1 29.8535 26.1779 39.8616
1 46.7044 22.2098 28.6669
1 27.3212 4.99585 39.3461
1 0.981933 32.844 13.449
1 12.0396 32.472 3.55065
1 34.5118 45.3449 17.124
1 26.3248 9.80447 28.0516
1 2.22318 2.91675 38.3397
1 44.1139 20.9231 5.76131
1 13.5471 1.49105 19.2713
1 35.2564 4.94214 16.0608
1 10.5363 12.1473 17.0543
1 11.7615 24.2731 39.8918
1 12.2759 35.0577 32.2107
1 35.1023 15.5165 3.5031
1 6.78565 46.0631 30.5936
1 36.5141 45.2356 13.5704
1 45.2417 29.1927 26.2769
1 43.9556 37.1652 46.9744
1 32.5745 3.56584 47.5168
1 3.71953 13.4903 12.2288
1 33.3904 11.818 46.6801
1 18.6492 3.3967 30.6805
1 1.43811 15.7392 11.1305
1 30.6655 23.822 4.13287
1 45.1632 32.0067 41.4406
1 11.4224 44.2316 31.4432
1 10.4029 46.3675 24.5884
1 0.569704 29.4597 39.8586
1 2.68468 36.1843 34.1771
1 47.2682 9.97535 44.0339
1 42.7384 13.9209 11.5726
1 48.0617 9.80852 5.93818
1 32.0448 39.5152 28.6761
1 18.1182 13.6375 15.7096
1 16.4279 42.4352 19.4486
1 32.7919 46.6149 26.7959
1 41.8623 10.6892 7.69583
1 35.4199 38.4548 8.38477
1 42.406 35.3744 33.4676
1 44.7616 1.59408 43.7615
1 5.0319 44.0062 29.7795
1 7.15883 4.41176 32.2592
1 16.4436 5.92435 24.8866
1 43.6977 24.4454 35.3401
1 1.75417 29.4124 44.1918
1 40.4182 6.74328 35.6652
1 43.0346 21.116 38.942
1 13.4541 13.8787 12.083
1 48.5139 5.10534 28.9042
1 45.0795 6.19557 40.2941
1 33.3467 29.0165 37.2273
1 23.8895 8.69154 16.1801
1 22.1497 10.6029 15.4366
1 42.007 16.1491 9.0641
1 44.3838 37.0662 14.2416
1 24.4996 25.5499 49.0637
1 1.00758 32.1213 38.5277
1 2.10805 26.9738 31.9918
1 47.2653 16.3353 31.3363
1 8.34988 49.5629 9.69242
1 3.46259 5.87078 24.9591
1 19.9887 48.1509 21.7222
1 20.5772 24.3426 21.903
1 49.1538 37.57 31.3756
1 22.2107 7.85366 49.6496
1 15.8881 21.3464 40.9077
1 2.85562 45.3124 22.0443
1 14.3696 25.5554 42.7123
1 17.5184 11.1699 17.0164
1 31.6637 14.1609 23.4202
1 15.1759 24.5838 24.3966
1 3.80846 14.4469 35.283
1 3.42726 0.463913 12.8724
1 40.4329 7.39538 48.5593
1 18.0137 49.4219 10.2802
1 31.7984 12.884 42.1103
1 45.2716 35.4645 40.5895
1 42.1769 39.1563 21.1123
1 11.3371 36.5975 7.61011
1 32.2255 39.2424 5.11223
1 12.5978 10.6347 2.3208
1 6.4736 16.649 43.2284
1 18.442 9.72739 29.5008
1 3.05881 45.6603 40.3032
1 1.24803 35.9121 31.7534
1 48.6208 2.37923 10.3177
1 31.5072 41.129 48.8066
1 7.08586 45.7306 39.6503
1 16.473 17.384 13.9531
1 41.5343 18.041 34.797
1 14.6638 11.8501 37.844
1 26.1796 43.3216 8.43136
1 3.42401 10.9234 42.1639
1 10.8628 16.1148 22.5871
1 3.63177 27.5502 24.1294
1 45.3903 27.3815 29.7935
1 49.6019 1.07996 38.4415
1 23.5122 9.13107 35.2143
1 18.8216 30.0546 36.2954
1 22.4667 22.1142 8.61217
1 44.4147 8.86915 47.6143
1 44.5504 16.4281 41.5928
1 34.8641 41.2365 44.9062
1 7.83937 15.1117 31.4639
1 32.6554 14.9557 15.2651
1 14.9207 24.023 49.6996
1 3.16096 47.1355 49.6138
1 7.30108 24.4874 42.0192
1 34.4655 14.6923 30.7471
1 38.011 38.6086 2.17548
1 17.9799 24.3471 17.2412
1 20.8285 26.2633 29.241
1 12.295 28.5563 4.91278
1 6.37848 1.54237 39.787
1 24.0734 36.4957 8.31007
1 9.33991 44.5994 40.2633
1 37.0087 48.8777 20.9905
1 13.6683 5.51806 39.8787
1 34.0324 37.7181 20.9979
1 17.9192 24.0861 49.0857
1 1.67631 38.4836 4.34675
1 7.85468 13.6337 -0.0246134
1 11.6798 0.34614 17.599
1 34.2456 2.82302 37.8363
1 21.8285 19.4567 30.1321
1 6.13063 2.05756 25.5356
1 18.2783 28.2322 31.7664
1 24.7152 9.39823 46.8226
1 9.25619 9.53771 47.71
1 15.3785 32.2118 34.6834
1 8.58794 42.4549 19.3858
1 46.1534 17.3339 16.4589
1 28.8907 8.42876 28.8544
1 34.847 45.9511 24.9124
1 24.5992 47.0563 27.182
1 41.6783 38.5863 1.211
1 42.8205 18.0053 10.8166
1 20.0527 2.14543 1.79029
1 19.9338 27.7386 27.1499
1 32.1425 35.8284 20.1893
1 32.9718 47.6878 29.3863
1 20.436 28.0367 23.3081
1 2.94754 44.0733 26.125
1 40.9243 6.50476 8.90494
1 44.1688 4.59967 48.9035
1 27.293 16.0192 45.109
1 48.2167 40.3874 37.7202
1 36.9277 11.3605 28.1764
1 1.50302 35.4768 23.7471
1 6.47858 33.8991 6.8018
1 24.7 7.98189 5.44553
1 27.2005 32.1418 15.0001
1 36.6423 8.72609 17.7968
1 22.7302 43.1621 32.8561
1 9.47838 34.6384 28.4114
1 14.1998 11.7296 40.7789
1 7.15603 37.5435 22.3861
1 34.443 16.9015 18.7827
1 18.258 32.3542 11.3413
1 13.0368 13.3947 16.9413
1 6.20301 16.3312 18.5229
1 32.6918 28.5876 19.6541
1 44.765 38.406 38.5695
1 49.56 18.8778 34.0809
1 14.6944 19.9922 8.59771
1 5.31091 10.8811 36.2718
1 24.7118 11.7691 13.2379
1 39.4271 46.685 28.5759
1 24.307 20.1877 23.8813
1 7.19752 49.445 5.72722
1 15.4782 1.12863 8.74366
1 41.6517 35.5144 47.7651
1 36.1435 33.8379 26.2951
1 25.1419 39.9252 1.41799
1 6.63982 29.2654 0.249697
1 21.975 18.7938 49.1887
1 18.0734 19.2273 23.6945
1 41.03 16.3017 49.1986
1 13.7119 28.8504 24.2718
1 45.164 5.39876 32.5392
1 7.15933 46.5813 13.5226
1 47.8177 4.44812 34.5169
1 36.1669 9.68493 3.23884
1 45.6542 21.5832 9.45
1 32.1069 3.98905 13.5135
1 9.82919 5.4464 40.842
1 1.15435 5.35052 22.6679
1 20.3341 33.9359 41.109
1 42.1049 35.9953 29.4434
1 9.23439 3.76185 2.35112
1 31.4515 44.0462 16.2789
1 46.314 31.2785 37.9322
1 8.48121 36.7874 16.2535
1 15.7701 19.2889 27.7976
1 8.65604 32.5485 9.0145
1 22.3512 6.77086 41.1366
1 18.869 23.807 37.2677
1 9.03547 32.6995 26.1719
1 12.8164 47.1871 29.9624
1 5.19367 43.6569 36.5268
1 49.1644 9.40466 24.5731
1 38.4531 46.2119 45.212
1 27.1979 5.7646 29.4188
1 10.1424 34.3226 11.8755
1 16.1215 12.6212 11.8142
1 16.333 43.2693 39.7316
1 37.0299 37.2611 17.8913
1 2.56545 33.4012 47.0548
1 0.158805 36.0999 0.231367
1 46.4558 0.202989 39.397
1 11.8236 45.647 46.3597
1 16.2015 39.1407 26.5565
1 19.3028 46.1442 12.9128
1 18.8236 3.7152 36.7604
1 41.1846 17.3102 46.744
1 9.49947 42.4835 32.0358
1 43.65 14.6919 29.3475
1 3.02025 15.676 1.53445
1 18.7568 24.3082 42.0916
1 14.0515 43.8641 26.1787
1 3.04804 0.251342 42.1613
1 1.12645 4.48299 1.21363
1 34.0511 31.6598 43.346
1 27.3151 9.1486 18.6588
1 36.7145 27.5338 14.2754
1 21.9496 25.1206 46.145
1 0.169237 49.6793 27.9841
1 37.4491 41.114 11.0866
1 17.4612 29.527 8.71092
1 44.5843 18.1767 27.3443
1 42.1668 13.3751 41.2177
1 42.9607 19.5557 8.04724
1 37.7273 38.9208 22.1082
1 20.3985 29.6854 4.21549
1 28.4754 30.7605 33.5808
1 17.7251 42.5475 46.5683
1 40.5277 20.6276 9.4848
1 36.7397 42.1375 14.0528
1 32.2402 6.05507 46.2759
1 46.3382 35.5003 36.191
1 28.9468 12.2954 25.232
1 14.4012 4.46231 27.8441
1 40.8204 36.8638 39.8121
1 4.39013 6.54142 41.1771
1 13.9076 46.3538 20.3296
1 38.1089 47.1246 8.14944
1 5.79936 5.56439 28.4634
1 26.2112 27.2362 24.3051
1 37.4768 23.1216 3.0387
1 0.861272 7.97973 32.2841
1 0.170206 18.5076 26.0831
1 11.2864 41.1501 25.2233
1 39.2043 17.0469 29.166
1 26.7511 7.2195 31.6341
1 0.953775 29.0779 46.7374
1 5.14241 31.2286 8.25714
1 18.14 46.1378 22.4896
1 6.53056 49.574 19.0935
1 34.0935 44.7271 14.3786
1 6.20961 7.93361 4.62423
1 4.87254 29.01 10.2326
1 5.30916 4.16166 43.839
1 34.1688 45.495 44.4168
1 46.1199 17.5562 45.8645
1 37.5398 24.5171 42.2023
1 34.4015 21.3624 24.9249
1 34.6916 27.3171 27.014
1 4.43657 32.6239 48.7417
1 47.7877 28.9062 11.7081
1 19.3199 44.885 42.6104
1 3.30759 0.20864 20.3152
1 33.4721 14.251 37.1084
1 35.2547 0.0778146 25.4448
1 30.7473 9.95895 46.0857
1 14.97 47.4837 24.6728
1 11.8093 23.8908 27.0813
1 48.4551 1.60097 19.2164
1 37.4783 38.0636 14.9176
1 7.00994 5.2711 36.9443
1 8.13382 31.4 3.50659
1 47.8896 47.7368 5.33669
1 43.0693 0.10916 37.5845
1 43.6669 41.726 47.8761
1 42.058 9.54986 48.2483
1 12.8291 19.1944 4.03552
1 0.905491 34.7224 28.1397
1 16.8085 21.5897 16.7944
1 28.5674 2.46653 2.74293
1 4.69086 40.0252 38.8482
1 14.0816 48.9326 36.5506
1 18.8099 8.21718 7.65282
1 12.1619 12.462 34.1787
1 10.1247 21.1533 15.4936
1 7.75326 14.1523 4.20626
1 16.0596 17.8586 6.93284
1 28.2383 40.416 40.6681
1 39.1529 26.5975 20.0156
1 15.4472 40.3304 14.8773
1 48.057 16.5342 22.2761
1 0.548408 46.5365 20.2699
1 13.2961 35.3279 26.1885
1 0.667724 6.81713 17.0391
1 39.7676 14.3789 16.5031
1 33.2145 21.4019 27.8256
1 13.9024 13.176 7.5898
1 7.48288 1.72571 48.738
1 17.6348 47.3404 4.05896
1 44.2949 46.5063 16.7309
1 11.6257 29.1185 20.0141
1 32.6631 0.515134 26.2985
1 12.4653 49.3283 49.3155
1 45.2445 32.2181 33.6968
1 7.75391 22.4241 32.5309
1 27.0571 37.3214 33.1583
1 4.47523 15.1281 16.8525
1 48.1599 6.41115 48.1986
1 12.2954 36.8481 44.1766
1 16.7383 36.3288 11.7115
1 31.9103 4.39845 16.3724
1 44.5868 13.9801 38.3738
1 3.70776 45.6593 28.1284
1 20.0116 33.0538 28.1077
1 2.0505 47.2488 46.9741
1 28.3689 4.17021 48.5381
1 17.2143 44.1867 43.8299
1 35.641 1.92694 32.8212
1 14.8158 43.1283 29.4365
1 48.0307 2.27594 23.0623
1 30.9185 26.7363 7.58169
1 45.5047 20.4922 41.8997
1 46.1748 25.3452 6.52638
1 32.9581 48.9539 18.3082
1 46.6587 1.58708 36.7413
1 18.6356 15.3479 34.5393
1 11.4148 17.8285 0.0873077
1 8.24721 7.41359 11.4542
1 38.9846 44.6393 47.5591
1 49.488 46.2641 44.4865
1 25.3408 18.8206 8.38903
1 5.03809 40.7224 28.7548
1 7.79803 40.0908 14.5049
1 22.8812 26.7123 43.2132
1 2.09693 44.5416 46.2683
1 14.2499 18.8588 14.5473
1 42.1099 26.7617 40.4192
1 13.4967 49.5537 25.5546
1 1.39805 43.9678 10.262
1 42.5329 2.48212 5.12206
1 24.187 33.0396 34.1009
1 13.1659 4.15598 22.1355
1 42.4455 9.27136 12.1881
1 18.0875 37.5315 46.1919
1 37.6464 16.3592 4.88451
1 9.0815 5.26649 47.4956
1 5.07607 20.4324 23.6578
1 23.213 12.2025 44.6627
1 36.1846 28.9375 42.2891
1 0.0356545 2.53457 26.6958
1 6.62578 36.9902 36.1626
1 41.9933 18.7359 22.8099
1 0.720508 3.79734 34.5287
1 30.0154 1.78391 23.2151
1 39.4933 41.3196 23.5706
1 16.9775 18.2577 21.3986
1 47.8341 16.6842 33.7311
1 36.2695 0.689137 0.712685
1 11.3317 25.9634 30.7505
1 29.4744 42.1461 42.5466
1 27.8652 37.4248 30.4972
1 12.7556 43.9945 6.19035
1 35.2278 1.84546 30.0866
1 2.82353 42.3697 36.3043
1 22.0221 10.1603 33.3894
1 20.9156 27.5146 44.825
1 12.611 14.7965 1.82765
1 13.5036 8.17674 39.5156
1 8.05313 46.3462 3.95256
1 34.3298 28.3655 29.6227
1 17.4944 13.3184 35.6266
1 19.0328 46.7188 15.8742
1 23.5505 31.8648 25.7313
1 7.86893 39.8037 25.8761
1 23.4988 6.94769 13.7218
1 17.2062 18.627 3.18378
1 7.63723 42.0079 12.4622
1 34.1605 26.4136 13.7013
1 7.124 23.6653 29.7557
1 44.7703 33.924 5.64846
1 45.2533 23.3465 41.0674
1 9.0805 10.5156 10.5424
1 34.1093 46.3886 37.4066
1 23.1566 41.57 6.41928
1 22.1734 37.9136 31.3829
1 40.5964 42.8669 19.3854
1 15.4775 31.0633 -0.0340102
1 24.4849 19.0253 41.8994
1 19.3745 40.9238 10.2882
1 48.6889 13.8685 37.1995
1 8.99331 42.8947 44.8692
1 49.6283 18.3579 47.9015
1 3.82291 32.2405 18.4428
1 0.806481 24.7135 7.50334
1 11.3104 47.2451 17.7774
1 43.611 44.986 20.3482
1 49.384 14.4965 6.06061
1 42.5829 32.8285 20.1785
1 13.3583 26.4019 39.1522
1 22.3101 23.6274 49.0422
1 22.9683 2.38566 14.7501
1 11.4527 17.8241 7.3859
1 10.2355 42.8337 3.3741
1 3.58955 38.0443 10.5781
1 26.1422 23.462 49.0749
1 49.9215 17.9093 15.4135
1 34.0824 24.1364 33.3372
1 22.3191 41.7425 48.0831
1 14.2122 18.3065 46.7451
1 2.88649 8.45076 20.2974
1 36.3386 7.67834 37.635
1 21.0298 5.06361 16.188
1 7.95117 6.85272 19.6871
1 34.2217 31.0375 13.0155
1 24.3364 25.5056 31.1433
1 40.0628 28.7302 13.519
1 44.3935 5.77492 20.373
1 30.3289 15.8818 46.9868
1 1.68133 15.2999 31.7807
1 43.4703 46.6691 14.2882
1 7.63635 27.0054 43.6529
1 3.99024 34.0256 5.00072
1 14.8483 17.4468 3.52285
1 30.2584 16.618 18.7243
1 10.5262 25.5981 33.8088
1 20.297 49.4554 31.4812
1 43.5475 33.8824 17.3654
1 45.3367 10.5941 20.3494
1 24.5737 41.3081 31.7186
1 7.16702 2.06116 37.6636
1 33.5066 35.6327 49.101
1 5.10219 18.7098 39.3411
1 19.3866 45.0045 46.2177
1 29.8748 4.63597 28.8128
1 47.3425 10.5843 39.6569
1 36.1526 35.3498 24.0352
1 5.69913 17.2693 34.6675
1 31.9018 24.977 18.177
1 39.8843 29.1356 34.6546
1 36.831 31.9421 4.06843
1 8.72213 27.7659 15.4447
1 33.0842 28.1499 32.5769
1 26.7289 12.5606 1.9937
1 18.1635 48.6941 25.9756
1 33.794 31.1102 18.0872
1 5.69971 16.6761 8.34467
1 46.7542 3.4597 4.58699
1 6.71255 27.8889 19.3262
1 28.7125 49.6095 33.5591
1 18.7822 5.92262 6.21012
1 29.2173 31.2761 36.8303
1 29.7204 8.35029 5.61567
1 31.5066 46.2897 48.5745
1 21.4787 8.9119 10.0094
1 34.3348 4.44158 23.4385
1 10.7761 23.7669 16.3162
1 13.8952 8.40781 21.7381
1 39.8715 11.6384 25.6342
1 45.2255 12.8603 12.375
1 20.7348 31.7057 9.9686
1 39.898 14.4816 21.8883
1 17.1841 20.1283 5.50657
1 42.4537 11.0234 15.1651
1 22.5026 17.5618 26.8738
1 14.6886 8.46265 34.6909
1 43.3957 35.8943 22.364
1 16.0668 3.70144 5.76129
1 8.36352 40.6807 40.5482
1 9.23457 33.3587 21.6426
1 37.6157 20.2292 6.16542
1 6.18 36.579 49.181
1 2.09222 10.4603 33.0812
1 12.2638 39.0895 19.0309
1 28.8646 33.44 41.6205
1 33.6624 40.7123 9.26221
1 16.3819 33.7084 49.5244
1 6.26382 26.4085 0.851476
1 26.557 18.5443 20.6181
1 37.8561 14.2996 10.8708
1 14.4177 4.22311 19.7493
1 38.5853 18.8628 2.31245
1 5.07981 24.7418 10.8763
1 43.9607 34.5741 1.54257
1 27.9603 41.8677 28.5828
1 38.7812 15.886 2.42657
1 26.8694 46.4485 1.94357
1 47.4896 21.6771 23.7589
1 14.6028 46.755 4.11912
1 30.5564 22.7426 20.3675
1 39.0652 39.5965 39.2615
1 45.9935 21.5286 33.0427
1 4.60236 47.5433 41.6709
1 17.3209 26.411 23.0484
1 1.7857 44.6811 16.7928
1 10.5329 14.2844 30.6084
1 40.0709 48.425 12.1317
1 40.1989 12.3549 9.16784
1 13.4687 46.7288 6.63825
1 4.18782 6.06583 5.1199
1 48.6881 16.2296 38.9022
1 5.48579 6.29664 32.9299
1 4.94346 15.9308 49.3857
1 21.9612 38.3233 21.8428
1 31.6946 20.6827 2.66968
1 14.6965 31.5421 4.52141
1 38.7035 28.9215 49.1984
1 36.6548 9.47408 48.2701
1 33.4601 17.9897 6.64654
1 25.8733 27.8631 7.43025
1 46.3128 33.1948 48.052
1 47.163 11.8055 48.1115
1 46.5859 33.7595 25.0854
1 26.1376 18.5878 3.58348
1 30.3607 30.8347 8.08699
1 9.25017 45.93 6.5506
1 8.02511 33.6155 34.2295
1 3.19852 36.3076 27.4102
1 14.8123 28.9219 6.04924
1 31.0437 18.0793 24.7694
1 27.7995 16.7788 32.2633
1 7.23457 5.41048 1.83538
1 13.6667 34.1008 42.8561
1 0.459859 36.9593 38.7141
1 5.4321 2.27397 19.5609
1 43.3966 18.5158 46.0112
1 49.5601 13.9125 27.9059
1 47.9487 25.8708 24.7508
1 9.33513 49.5651 45.4029
1 7.78961 33.9723 3.41624
1 21.1051 35.8745 19.3948
1 8.51625 13.0878 45.4467
1 26.9146 37.8684 1.36317
1 42.243 43.1719 3.40447
1 10.5993 13.6781 25.4674
1 6.18018 35.9932 8.61459
1 41.0343 21.9632 0.324794
1 44.942 28.3785 22.6495
1 47.3747 47.4596 33.8732
1 45.3276 32.1809 23.1022
1 41.4454 37.109 35.3555
1 41.6633 15.7919 36.812
1 34.6201 32.824 36.3516
1 5.45526 20.9545 0.973611
1 39.769 40.5017 27.3388
1 41.8206 42.9979 37.591
1 11.8349 39.0985 5.70486
1 13.8574 6.72048 13.9375
1 30.6412 28.8236 6.28468
1 7.62886 8.22681 2.06365
1 11.3875 48.5217 13.0985
1 6.80622 47.8103 37.7705
1 7.36381 8.10146 44.4001
1 48.7519 7.17427 10.0792
1 8.47325 6.75376 5.70737
1 11.4061 4.20862 0.74728
1 23.6609 27.4655 25.7098
1 15.1652 15.7823 46.3998
1 46.9812 42.3558 1.197
1 10.3502 8.57325 33.7059
1 5.50542 23.6934 24.2789
1 35.2795 36.658 3.80461
1 43.1609 27.4032 1.16967
1 19.707 33.5654 37.6011
1 17.9352 0.489646 47.3675
1 4.39638 27.8856 39.5138
1 2.7342 19.2068 3.88876
1 3.20453 24.4339 0.0903456
1 1.00534 19.5285 13.1823
1 27.2255 14.4384 20.5185
1 37.8442 13.8075 41.608
1 2.992 37.7393 30.043
1 13.5819 27.575 18.1207
1 24.4927 1.99945 26.626
1 38.6345 26.8215 33.7593
1 47.1273 41.2073 5.64958
1 16.3772 39.6724 18.683
1 42.6737 20.9621 21.6855
1 30.1714 16.0146 16.1359
1 23.6005 39.1129 18.9991
1 31.1695 29.4298 1.13308
1 3.65663 25.4109 43.6382
1 48.1123 33.8967 9.54438
1 17.7466 26.7404 20.2074
1 36.7376 34.6773 39.6228
1 45.0228 25.2629 17.9837
1 31.8717 15.1316 30.4051
1 44.3815 14.5821 8.89181
1 43.9857 23.4432 6.93686
1 48.7227 41.0032 14.321
1 42.2448 29.6568 43.5383
1 16.9465 6.89855 48.1796
1 8.50025 27.1752 9.49946
1 10.9854 49.2854 9.06621
1 19.2526 39.488 20.5815
1 1.41607 49.4169 32.7128
1 32.6885 44.8918 10.0709
1 4.47113 37.5543 40.2359
1 7.85168 8.01754 24.9325
1 47.9662 44.4874 15.8478
1 20.8262 43.8823 23.6507
1 21.2522 28.3177 31.1166
1 27.3177 30.4026 44.1449
1 43.7283 7.38633 22.4353
1 18.8482 1.03965 13.6437
1 49.1906 30.4181 26.9356
1 0.450193 26.9714 17.7242
1 12.5335 17.7803 25.2647
1 38.1836 41.7081 6.24767
1 8.54711 46.8012 28.713
1 35.3126 17.5614 38.2809
1 6.04483 32.7389 24.218
1 4.7014 23.5374 46.8889
1 -0.0132745 22.7577 42.3048
1 18.0282 31.597 45.0067
1 47.0995 41.487 40.2483
1 15.8918 46.9089 40.7682
1 6.54025 9.15066 46.6923
1 41.195 10.2902 43.329
1 26.3596 34.8768 37.789
1 37.8279 11.206 8.49669
1 9.2026 38.4161 7.18551
1 0.73653 44.0079 31.0597
1 7.09643 9.0423 15.1604
1 13.2025 36.9913 49
1 14.6086 3.52276 11.5373
1 11.282 30.6928 9.08051
1 48.9465 20.7219 17.8934
1 23.0247 5.34936 23.8807
1 10.7016 19.3687 34.263
1 38.0836 27.279 41.7185
1 37.4176 47.6219 12.5882
1 10.0679 0.963715 48.0233
1 12.1408 43.3713 17.5646
1 27.2769 39.8255 16.5656
1 7.06677 23.7959 21.8589
1 9.26838 12.3528 41.6335
1 16.6757 12.4547 19.3538
1 30.2013 39.3238 13.3948
1 22.8444 23.6962 11.0221
1 42.8517 24.331 29.7525
1 42.1553 1.47658 2.56043
1 16.4908 39.4177 45.4271
1 30.8067 35.0257 49.0015
1 3.30618 15.4195 39.577
1 12.3386 41.5713 29.463
1 19.4685 3.33312 7.25452
1 13.7322 28.8471 30.2778
1 43.0127 35.426 42.2242
1 13.7093 43.4689 45.4373
1 19.9498 48.0355 3.02924
1 27.5753 48.8558 22.3133
1 13.2525 28.2358 15.5186
1 14.084 37.5885 1.52609
1 16.7023 34.7406 32.0977
1 16.6349 43.3177 12.8506
1 0.504419 49.6526 9.43741
1 11.7228 6.92673 1.1165
1 20.9781 28.8048 47.2585
1 24.233 32.8408 23.3219
1 6.20333 17.3253 1.57705
1 3.84978 15.2396 20.59
1 2.20959 14.145 42.8923
1 48.9297 39.0848 2.98161
1 7.15529 19.5889 11.8067
1 12.002 10.1001 22.6688
1 37.4454 31.6461 16.0969
1 4.20755 21.7089 33.4767
1 7.73421 21.429 47.6663
1 12.2517 42.7969 13.4864
1 5.40384 49.3441 1.61497
1 32.2939 29.1023 3.51026
1 49.5704 20.1487 36.4909
1 35.8967 45.0685 21.0413
1 4.71113 4.79366 48.4322
1 13.0031 32.8778 46.4558
1 18.9252 37.3602 0.397337
1 33.1438 5.54577 8.86908
1 28.9106 40.7393 22.5023
1 39.9679 45.2056 2.94465
1 20.5422 40.4808 31.121
1 9.50277 0.751389 14.9243
1 6.17408 29.9058 2.79333
1 32.6639 37.3927 33.5136
1 43.4269 9.14301 41.8727
1 43.3609 7.51457 35.4909
1 25.7413 35.7487 27.5919
1 18.0288 43.4184 22.2513
1 5.01397 23.9969 16.894
1 11.5014 32.549 29.0249
1 23.9164 21.312 36.6656
1 49.61 3.35589 30.523
1 45.4569 49.3572 14.1765
1 36.582 45.1046 33.4617
1 31.8254 18.1385 40.6735
1 47.4007 40.4351 25.5578
1 21.0956 12.9864 36.8362
1 40.2496 28.7258 40.6348
1 12.1236 41.879 38.5661
1 22.9117 11.6161 3.86563
1 45.2556 29.8382 11.9272
1 40.2999 24.3956 19.2869
1 35.5835 26.6358 49.4294
1 33.9616 46.4193 22.2459
1 38.9293 4.89259 31.0702
1 31.1717 8.16403 41.188
1 22.2584 27.2717 14.9388
1 22.568 22.5295 23.1979
1 7.41847 25.9468 28.0618
1 42.9255 37.176 5.21165
1 20.7873 40.1959 27.2251
1 48.3447 25.6015 28.0104
1 15.9109 28.7182 18.9795
1 35.0405 14.331 25.2963
1 40.531 37.5627 11.7197
1 15.1272 25.6064 32.8679
1 4.27852 17.2379 47.4053
1 31.9213 45.3416 4.18861
1 32.7394 10.5298 14.9783
1 42.9973 34.5537 25.3768
1 40.618 26.0473 2.4211
1 37.7253 37.6073 24.6154
1 25.7886 20.7684 21.9163
1 39.4835 8.09129 18.6377
1 6.27143 13.6301 15.2116
1 13.783 36.7396 14.1292
1 21.6225 43.4731 41.7021
1 24.9391 13.8353 27.3555
1 1.13319 43.876 43.3422
1 30.4182 34.8486 33.1967
1 43.7394 28.1407 38.3612
1 2.93068 4.8785 11.8857
1 26.3135 30.038 21.9079
1 25.3379 46.7783 47.3257
1 31.5934 4.09427 4.96678
1 3.00572 11.2072 6.28754
1 40.1952 26.2408 8.25615
1 3.57406 38.3526 25.675
1 14.5095 39.955 47.4013
1 22.8653 45.5135 47.626
1 13.148 27.1535 8.41662
1 46.9514 37.4175 3.5076
1 13.3859 8.53842 6.28863
1 29.8592 18.5349 35.6699
1 3.00379 20.1218 0.0382516
1 11.0139 35.3244 48.6787
1 44.169 30.378 9.62921
1 0.52633 24.3533 18.9759
1 47.6582 20.8248 13.7726
1 1.60274 41.9429 12.185
1 26.1396 12.1136 37.0605
1 31.9349 8.75337 0.286531
1 36.7689 15.5174 15.5635
1 38.296 30.025 10.7143
1 4.06159 26.0979 46.5438
1 1.45009 14.4484 49.5113
1 41.8078 46.8912 1.68412
1 41.4033 26.1951 27.3557
1 49.7352 18.1817 20.7885
1 20.6176 9.31064 3.48469
1 31.4989 0.34099 32.7215
1 42.2524 20.0993 18.9866
1 44.0938 37.1426 32.2401
1 28.7173 13.5338 29.2748
1 47.8341 14.2901 47.4119
1 19.8805 7.25176 17.8005
1 8.20549 31.4646 45.4884
1 22.7208 30.2524 48.7468
1 43.4107 40.4988 6.7506
1 19.2091 4.34846 27.5876
1 10.8315 37.9658 23.4335
1 28.5496 13.7622 18.2713
1 10.7895 32.5613 48.5464
1 18.2082 36.0255 37.5727
1 26.4618 32.2314 45.9136
1 4.71183 29.0641 21.0845
1 22.5779 41.6203 23.7187
1 12.2714 19.223 20.8459
1 3.90902 26.2593 6.23228
1 16.9661 19.6705 35.1063
1 38.8614 8.00797 26.2307
1 2.19993 8.15665 47.6104
1 36.3406 9.62478 20.4396
1 18.5837 21.7008 22.8299
1 11.3137 19.0983 31.6192
1 40.2045 40.109 41.8976
1 3.63733 26.6479 9.05496
1 33.0898 47.2905 11.2183
1 9.35929 38.1208 13.9593
1 49.4845 48.886 44.3986
1 33.1652 28.8976 22.2702
1 21.536 0.687608 4.38296
1 20.0159 11.773 48.4845
1 3.11502 30.4151 5.60526
1 40.3411 43.1363 9.36684
1 41.2992 4.41466 2.27786
1 7.88294 44.6387 32.3984
1 35.0573 47.965 41.9156
1 15.8993 9.03199 8.61301
1 48.6714 23.5163 0.762049
1 33.8098 40.5353 37.1112
1 21.8731 35.0468 22.073
1 27.2816 48.7721 31.2355
1 48.6544 24.7805 21.043
1 43.9739 27.4913 46.2566
1 44.4602 41.8559 2.42644
1 44.9441 21.7608 2.89614
1 30.3514 3.06747 25.4647
1 31.669 39.9414 25.9448
1 27.0327 26.2522 5.53373
1 9.63953 1.00165 32.0986
1 23.6992 31.5139 10.1978
1 17.5544 37.6186 24.6004
1 3.34915 3.10252 25.2992
1 35.3208 17.1273 25.0047
1 4.90592 40.7599 20.4602
1 12.154 1.69264 14.6617
1 18.115 43.3999 26.7687
1 13.6026 30.8966 25.8463
1 7.09359 0.462573 32.9555
1 6.85887 31.8095 37.677
1 2.63667 40.4428 29.4221
1 23.0725 12.4947 31.0944
1 9.08754 11.3886 4.76816
1 49.3045 1.13764 6.96708
1 14.9484 31.9667 42.5486
1 49.3755 11.5824 18.5027
1 18.2529 14.8504 19.1555
1 0.0877059 7.79614 6.436
1 31.5897 49.4396 24.1712
1 2.25588 21.5819 36.3325
1 23.8175 38.4251 49.0735
1 39.0017 42.5956 44.3545
1 19.9047 14.1349 38.902
1 35.2422 28.5358 9.54312
1 42.6757 36.9616 37.8091
1 38.2889 32.7044 42.3625
1 32.6995 41.4196 1.63611
1 13.0157 1.13873 29.1404
1 10.8546 35.8457 14.1531
1 46.9718 40.3466 45.0455
1 27.3838 27.57 41.8159
1 38.7823 18.8091 8.27215
1 2.16744 -0.13009 44.6741
1 16.822 3.37272 26.6444
1 29.0221 36.6643 34.8816
1 26.9446 18.7175 16.6693
1 5.74714 41.8945 40.4962
1 19.0915 14.5461 7.06793
1 23.982 20.4101 4.28479
1 7.61857 30.7807 27.0975
1 38.7931 44.5246 40.6506
1 20.0478 8.96354 48.3946
1 30.3959 27.0957 10.1003
1 40.6501 41.394 4.99201
1 11.8063 13.0347 28.1375
1 30.0219 4.5384 11.5832
1 24.3622 43.3969 37.8458
1 21.196 6.99584 33.8732