4096
 Atoms. Timestep: 4320
1 8.90682 42.0956 7.54789
1 25.1406 22.7757 21.9777
1 27.4152 5.83772 27.7084
1 22.9776 42.1244 5.12425
1 17.7073 5.71424 27.3903
1 13.5005 45.1502 35.5119
1 24.766 35.3041 4.70643
1 38.4103 45.8077 13.863
1 5.20574 3.66082 33.0714
1 41.4306 49.451 25.7733
1 16.3921 21.8896 4.15559
1 0.975567 4.44019 32.3908
1 7.14559 15.0456 5.37274
1 17.0094 15.2238 24.133
1 38.5092 16.6823 46.0914
1 17.4439 11.4993 15.1742
1 49.2512 42.777 26.2789
1 6.80186 25.103 3.24963
1 7.0368 16.7904 13.513
1 48.2193 18.2173 14.478
1 35.0025 13.3371 10.0282
1 9.71152 22.7935 9.91333
1 4.96067 36.7433 38.9423
1 9.81287 12.3334 23.6865
1 17.2168 47.6046 41.2316
1 48.7269 38.2335 20.4593
1 6.13475 9.31823 13.7693
1 1.55487 12.3065 24.6616
1 2.25926 48.3418 31.8042
1 0.820459 39.0315 49.1532
1 34.2423 45.8152 43.0423
1 8.9042 5.7547 26.378
1 39.3861 0.843657 13.5417
1 5.80497 24.5617 24.0825
1 29.1943 40.7329 44.3497
1 9.72093 41.8039 11.6013
1 5.65788 17.4151 38.1683
1 20.8845 20.1999 45.0081
1 0.266104 39.3699 17.3576
1 38.3211 6.09988 11.3757
1 27.501 34.7224 25.229
1 29.6123 23.0976 23.4423
1 6.85482 42.755 6.02116
1 35.6971 38.7548 48.1748
1 4.52819 9.09247 5.67233
1 17.1657 24.6619 31.0068
1 34.6343 37.2893 21.863
1 16.4524 39.7003 11.4584
1 10.8517 7.31764 10.215
1 5.37728 25.7675 21.7755
1 8.02804 3.3134 24.0891
1 26.5897 11.137 43.091
1 24.2391 17.4646 33.369
1 7.16248 26.3144 40.7404
1 36.8141 20.3401 14.4572
1 36.4338 25.4313 6.274
1 31.5826 18.4425 19.6796
1 7.15608 12.8122 40.1489
1 38.1602 5.91298 41.7482
1 15.2279 31.2757 18.7048
1 40.4789 40.4912 36.2664
1 11.1217 41.7304 34.5779
1 42.7327 37.1055 45.2276
1 5.74591 9.50946 39.3167
1 5.75222 10.0078 16.0935
1 4.26 49.2476 13.1844
1 40.329 13.4483 41.2621
1 40.3126 3.11366 21.0208
1 21.0594 17.1522 43.3157
1 42.0156 23.1574 2.36047
1 26.2263 13.5352 12.639
1 43.9274 8.76933 37.8719
1 18.7145 46.664 33.9726
1 38.6049 48.1097 5.89722
1 25.1609 5.11544 16.9313
1 10.6752 7.87909 19.1
1 7.29112 21.2226 12.9624
1 9.12968 32.3792 15.354
1 27.8707 32.7742 27.6328
1 6.47161 21.3871 7.4955
1 36.1179 2.23173 49.1753
1 20.0856 7.35683 15.8654
1 9.82528 49.6596 6.27385
1 7.81881 43.0764 14.8084
1 29.7318 13.2869 7.2801
1 25.0554 0.234455 38.46
1 21.9778 34.9717 7.71998
1 4.26227 35.9119 9.91696
1 2.48626 31.759 13.7172
1 34.3733 42.6931 30.7553
1 25.5785 48.3769 28.2228
1 12.457 44.2104 16.6717
1 35.5529 14.0381 42.2125
1 30.7612 6.30235 8.38099
1 11.5869 5.48612 26.5108
1 47.9332 23.1371 19.0857
1 18.0484 48.7598 38.0703
1 19.3995 39.8109 43.1311
1 16.8482 2.80198 46.1843
1 8.679 36.497 40.4081
1 27.3143 10.1609 39.3746
1 12.2598 10.4796 43.1177
1 17.8461 23.5933 14.0492
1 7.91131 22.291 15.4864
1 14.8332 2.19009 15.5885
1 33.8286 38.1872 31.4137
1 3.15877 22.8194 14.1191
1 6.04481 11.5868 4.92343
1 29.0763 3.3769 41.8185
1 11.1644 45.9064 1.94015
1 41.7702 35.2427 17.9197
1 21.1799 38.328 31.8152
1 32.4041 25.7711 35.9787
1 2.95665 36.4551 43.2051
1 37.4821 35.3281 6.92861
1 29.1918 37.1206 3.60775
1 29.7761 20.9278 40.8373
1 43.9131 7.61415 35.4524
1 36.5458 33.9389 28.4429
1 17.5528 2.61294 15.2375
1 18.2495 18.7982 0.572277
1 36.7873 14.623 20.5205
1 45.0153 4.52964 24.4311
1 27.0154 44.5887 4.82856
1 18.5674 44.7662 30.0636
1 38.0543 19.9651 38.4956
1 24.5179 35.6183 32.427
1 5.10971 32.9466 13.5965
1 28.9353 41.9029 1.44006
1 44.9999 9.73623 12.1198
1 27.6978 32.0662 17.4106
1 33.3437 20.8334 31.6009
1 29.6299 4.62778 44.1864
1 15.2272 49.5561 10.6596
1 13.5819 2.11539 34.1512
1 41.1976 32.8868 3.66541
1 45.0067 25.094 1.27793
1 16.0472 2.23842 21.6822
1 44.2388 3.39638 35.49
1 43.9334 27.8482 20.7706
1 20.3779 5.07497 34.4859
1 27.5874 35.4643 20.5015
1 21.6318 11.3819 37.0449
1 25.4801 45.1796 19.9801
1 43.1826 35.633 9.59999
1 1.32919 37.7057 12.6715
1 4.25376 16.5973 9.00713
1 38.1727 34.1719 32.6622
1 12.0758 18.705 49.3528
1 2.61329 31.5304 9.56569
1 8.2157 13.8295 9.10398
1 42.1996 12.398 18.994
1 49.4958 28.4848 24.7079
1 44.7625 1.49644 33.0241
1 10.5088 38.6067 18.2615
1 41.1852 43.9214 30.3431
1 34.4937 0.230908 36.9891
1 23.0405 6.81989 22.5056
1 29.7263 6.67375 1.1583
1 38.2729 17.3055 4.60505
1 32.2382 43.1103 45.8612
1 25.4758 47.3094 44.1893
1 48.5137 17.8335 41.4156
1 25.1841 20.8009 13.2568
1 38.8953 46.25 8.52922
1 45.6123 1.79914 20.998
1 33.0672 21.8325 15.8263
1 31.9346 33.3391 28.4182
1 44.1779 47.7325 18.5164
1 34.8261 11.2041 48.1465
1 43.0143 12.9798 10.3283
1 42.8384 30.3044 42.8643
1 22.7355 12.0217 20.2779
1 38.3873 8.95245 41.8926
1 29.4359 43.8684 18.7259
1 18.9767 28.9149 8.94031
1 13.1142 10.6167 38.5437
1 14.2041 4.2541 22.7358
1 22.7834 29.5657 23.4948
1 9.51426 34.0724 37.1023
1 35.6203 18.0667 17.8023
1 8.28295 13.1946 18.4132
1 22.9459 0.78511 32.9525
1 5.06073 12.5766 48.4477
1 11.7696 47.4952 41.1887
1 29.7387 18.7051 37.3895
1 20.3627 6.90635 23.648
1 1.33033 26.5906 22.3099
1 31.5029 40.7424 42.694
1 13.5779 7.15412 49.5315
1 1.63899 37.05 35.1232
1 14.8201 33.4569 35.7537
1 27.2653 32.3399 37.7753
1 8.85091 46.9438 5.71039
1 46.4182 10.8851 15.3516
1 30.4634 35.14 49.3032
1 42.1067 39.4412 4.37057
1 27.3169 30.7207 23.5612
1 33.8882 18.1019 40.6097
1 43.1559 24.6015 26.0156
1 31.1101 20.9028 20.5088
1 2.48882 11.6153 7.81144
1 42.3037 4.98886 20.7414
1 34.963 18.6654 26.1602
1 42.0362 4.43732 48.0409
1 12.6351 34.9298 10.1004
1 20.2652 16.2187 4.84112
1 44.0547 37.9399 8.99569
1 27.5433 9.47775 5.36015
1 22.6772 26.237 30.7735
1 47.3943 46.9626 37.3351
1 33.5191 6.27956 28.4091
1 31.6715 11.8169 42.5283
1 16.3266 39.9054 49.2572
1 14.8761 32.7562 16.317
1 12.516 7.02679 22.2282
1 12.9009 34.51 27.0162
1 31.2922 39.4752 29.1486
1 49.6959 12.2935 47.5096
1 44.5371 12.9854 6.15771
1 22.7668 42.2121 14.9309
1 7.59177 37.3803 7.16756
1 30.4808 24.6565 44.5549
1 26.3751 2.51224 29.1611
1 28.4673 28.9346 12.4636
1 14.8793 12.3273 15.5518
1 23.1795 19.6681 38.024
1 49.47 6.32008 19.1333
1 34.134 4.48531 2.34889
1 23.0928 31.6396 45.7414
1 30.2322 20.35 3.15218
1 33.4607 33.8376 20.5292
1 26.8534 40.9647 17.2028
1 17.9424 3.9438 21.1388
1 23.6691 10.6541 49.4378
1 11.5237 44.1458 24.2167
1 11.6005 9.08004 33.1669
1 47.317 11.6695 43.1429
1 48.5292 22.2334 3.94
1 46.155 20.2278 46.02
1 40.0749 12.6646 3.93378
1 19.7533 37.3729 41.5666
1 37.7887 13.7428 29.2684
1 34.7913 47.682 16.1294
1 13.8823 43.2378 48.18
1 16.6938 18.5379 23.5502
1 17.4225 32.9419 14.5697
1 16.1823 32.6794 43.8299
1 42.6151 47.8554 10.5858
1 20.0434 15.4829 16.7211
1 38.6876 39.9669 2.22508
1 23.5006 16.2194 44.647
1 41.4053 35.3835 32.5555
1 33.9584 3.94899 39.3987
1 6.9695 13.4196 27.1966
1 5.6966 45.3963 1.13048
1 33.438 25.0716 23.8191
1 3.64294 16.4099 6.088
1 40.1082 25.5233 40.0469
1 5.77482 48.9136 34.1562
1 20.2676 4.05768 16.0612
1 22.0883 13.806 3.95494
1 39.3073 3.76077 35.5947
1 42.6311 12.8111 48.156
1 1.98248 7.62219 24.5034
1 1.31559 7.17923 14.5395
1 42.651 19.6566 9.71691
1 17.5092 35.6795 41.0076
1 11.3917 1.35642 0.0616959
1 41.3078 24.6781 28.3932
1 6.65781 44.2552 24.9492
1 35.9618 24.4241 29.7094
1 40.6314 40.6563 14.3287
1 14.3051 19.6903 8.72111
1 6.95376 18.9529 3.81707
1 8.11851 21.0299 5.53696
1 48.4663 38.8358 37.5986
1 43.5395 14.283 34.6373
1 20.3759 34.495 47.6742
1 7.84755 3.2465 49.1468
1 29.6878 16.9438 3.41251
1 12.8384 18.6715 14.1756
1 47.7049 44.3272 43.8023
1 8.75776 19.2733 25.7538
1 18.4359 41.6267 4.07981
1 0.682975 21.9324 13.2661
1 17.2724 11.8031 47.9711
1 41.2753 2.62827 12.6903
1 4.90522 38.6053 16.7231
1 25.2195 29.2365 24.6215
1 42.1205 19.7782 33.0057
1 6.63747 21.4644 43.4752
1 49.7363 18.652 33.2517
1 8.69254 41.4491 41.3797
1 29.8478 8.14686 45.1615
1 44.9484 25.1372 11.9693
1 37.7535 21.2162 23.1091
1 32.8522 27.2311 41.9767
1 35.6442 24.268 38.8313
1 24.957 10.1644 46.8247
1 2.2105 40.9235 21.3482
1 5.41098 33.1532 21.2699
1 27.4781 44.2093 14.1885
1 18.5159 4.79738 23.983
1 4.98046 2.62845 41.8701
1 32.6274 15.3415 3.48228
1 6.50905 7.69758 8.31682
1 47.0503 11.0203 8.62292
1 49.3047 14.361 20.6997
1 13.173 25.5944 47.1683
1 3.18112 36.4369 27.42
1 38.8679 5.40848 45.5548
1 48.5312 47.0124 44.1637
1 3.49783 43.1281 8.81529
1 45.2445 35.4524 25.365
1 42.4323 42.2417 12.9385
1 25.0213 6.41055 0.896085
1 2.35429 19.1232 16.7379
1 34.4162 21.9052 40.787
1 28.129 2.76586 17.6698
1 46.8001 27.0848 10.8059
1 39.0038 27.8524 12.3989
1 48.0243 23.1966 35.9161
1 14.5784 41.2884 26.5258
1 7.19485 3.56499 29.4323
1 36.6932 31.3354 28.1932
1 1.91012 34.5767 34.3521
1 4.58449 14.8627 32.145
1 33.2505 10.2696 13.4517
1 47.2915 9.72285 11.1679
1 24.8551 28.4286 19.97
1 20.4553 5.78061 5.01
1 22.8526 35.9485 25.4782
1 37.8248 0.903996 24.0882
1 3.87756 22.3855 6.80367
1 42.5237 31.6169 48.4455
1 34.9916 39.8936 20.949
1 45.787 44.3304 3.30035
1 7.31329 42.4185 33.0451
1 40.696 13.6352 29.7599
1 13.0898 46.146 28.3023
1 43.2995 31.844 36.0434
1 3.7486 27.5364 47.3592
1 6.49567 49.5466 47.0987
1 41.1081 17.8523 29.3269
1 44.9059 8.91169 14.635
1 2.67615 14.5697 23.6129
1 38.5838 10.1307 46.4314
1 30.7035 20.5489 43.7923
1 34.0307 20.7234 4.48714
1 22.9186 5.68381 6.55822
1 29.895 7.99953 5.3971
1 49.3041 26.8546 11.3957
1 10.2916 18.706 45.2689
1 2.38534 32.7582 38.1151
1 38.5346 36.1171 3.84678
1 7.00398 7.97226 31.2827
1 10.2083 4.91655 11.4823
1 0.303948 3.6847 19.8856
1 12.4082 14.1053 13.4999
1 22.583 19.6944 13.2918
1 1.99601 32.5625 30.6356
1 33.982 45.4301 46.0391
1 15.1114 17.3236 44.4241
1 9.38633 5.37059 22.9279
1 16.0827 27.1077 34.5019
1 5.99544 6.63371 10.5793
1 29.7946 15.9622 26.852
1 12.8194 16.3467 6.83505
1 43.0866 0.788688 21.5675
1 42.7947 1.47412 24.2834
1 40.8228 15.1398 45.4721
1 11.7537 9.93225 12.7055
1 19.039 15.1412 43.9962
1 47.3816 38.5301 40.2612
1 39.6273 1.21433 34.5375
1 10.8701 32.2392 8.693
1 32.853 47.6927 9.18045
1 14.0781 11.8905 0.587956
1 10.7312 8.59289 44.2253
1 10.3874 24.0806 30.0167
1 6.73911 45.845 40.8528
1 44.9526 34.7095 33.0857
1 40.8786 0.63548 19.268
1 32.2238 47.9131 6.25194
1 9.05701 44.5286 28.9977
1 14.9405 19.843 1.99043
1 29.7835 12.1876 14.0957
1 24.1539 3.41723 33.4709
1 28.6693 46.2077 8.60569
1 19.0079 21.1882 2.15392
1 15.512 11.2838 18.2417
1 48.4295 31.1413 11.7871
1 43.7041 22.7257 16.0608
1 37.9624 2.27963 43.2305
1 19.4366 49.3305 29.6772
1 28.6196 35.655 36.0792
1 26.3057 14.6808 48.1003
1 37.1024 11.7866 8.87584
1 0.512512 10.2513 40.0361
1 38.3016 46.1806 45.9567
1 4.27238 20.237 28.3966
1 18.8731 2.96562 49.146
1 10.9976 30.652 12.1496
1 5.55442 44.5864 7.43933
1 15.9972 23.2052 44.0972
1 29.695 11.0621 38.0187
1 28.1875 41.3922 12.9216
1 12.9965 19.2783 22.3132
1 17.3954 25.6817 36.192
1 27.3767 19.6466 14.3267
1 1.64742 2.66427 44.3455
1 23.6991 47.4569 10.3296
1 19.0734 48.5905 27.0157
1 38.755 49.7484 30.109
1 16.495 11.3512 43.5326
1 27.1573 28.4171 37.4522
1 14.4799 25.0832 39.7839
1 49.0734 41.5809 2.77664
1 45.6555 8.80975 49.1832
1 13.9319 2.59932 11.4143
1 32.7771 2.21375 45.2174
1 26.0356 10.3302 31.6646
1 2.15484 46.0672 30.3384
1 14.1517 25.5645 27.6175
1 36.0042 5.29255 45.4427
1 25.1366 8.18836 39.6859
1 7.36234 21.7728 26.7754
1 3.89534 48.4664 20.3328
1 29.7511 16.7481 21.2073
1 37.0369 3.45764 27.0716
1 37.0714 9.85933 23.5495
1 25.6878 3.38835 35.9827
1 39.7251 25.0293 3.29409
1 38.8705 18.732 11.2444
1 10.2387 5.26615 46.32
1 30.9402 17.6998 29.5554
1 29.4359 40.036 23.5375
1 22.3558 3.24114 26.1003
1 21.466 26.317 18.5281
1 3.03023 44.66 21.7893
1 39.8993 48.4599 10.0358
1 48.4877 7.63791 0.524446
1 24.1087 12.6046 4.57842
1 46.5426 37.7672 35.7723
1 47.083 7.41954 43.0877
1 6.64995 21.4756 31.4182
1 6.5158 32.1424 16.0703
1 24.5639 3.25063 6.91456
1 18.5984 35.1261 15.6551
1 38.8933 3.32858 23.5803
1 20.5515 27.9413 37.5342
1 6.15853 31.8508 32.2347
1 17.3371 15.5279 34.0452
1 8.68006 37.0792 26.2706
1 30.3277 18.9476 24.8352
1 15.0908 31.8024 22.0288
1 2.03741 2.11439 10.3426
1 20.3213 23.7087 3.21436
1 43.628 23.4424 22.0138
1 42.2664 39.2981 41.5832
1 11.5398 14.4683 33.332
1 8.74729 18.8262 12.4985
1 45.3651 18.4978 29.5609
1 25.9138 20.6335 8.06988
1 38.2548 10.3723 30.2513
1 20.1806 16.3392 26.2302
1 6.62646 44.1651 47.4305
1 22.8744 3.28364 1.46514
1 0.294666 29.3038 10.543
1 33.0386 36.6139 28.0281
1 22.2958 32.3706 8.693
1 7.81349 30.572 1.95726
1 18.7413 22.543 42.5833
1 17.3705 29.3628 25.7076
1 48.278 6.01913 4.37121
1 11.1705 31.7107 18.7221
1 42.6354 46.5917 31.0788
1 35.3774 7.89831 24.7153
1 2.40959 5.25753 39.5798
1 24.7831 46.0404 1.32057
1 37.5414 24.0908 11.3565
1 18.5186 4.86669 11.3781
1 44.6433 5.07759 40.2655
1 48.7413 7.65625 24.0195
1 19.8797 28.055 40.0188
1 41.1892 30.934 34.7819
1 16.5352 7.85724 45.4705
1 33.6907 1.79173 29.5361
1 47.9031 33.8486 37.0934
1 12.3598 36.499 21.3013
1 24.434 12.5305 32.0075
1 16.2453 37.8707 23.8984
1 23.4809 47.2764 42.3305
1 11.8395 22.5798 47.7415
1 13.3832 34.3835 24.4036
1 22.0056 0.421783 30.2248
1 3.73923 45.2236 34.7412
1 6.19778 15.8675 34.0181
1 42.7518 0.405027 38.7302
1 40.4043 3.55652 32.0012
1 2.69152 34.4911 17.5392
1 30.7023 13.3835 4.09387
1 22.7556 46.3299 27.8819
1 36.1264 41.4811 18.0464
1 3.98405 32.7849 46.6391
1 5.98142 39.2768 48.2864
1 4.47862 9.92468 47.0383
1 10.7154 45.1247 42.0813
1 8.23552 42.9686 26.6236
1 15.4965 6.03942 14.324
1 30.2158 41.4705 38.6737
1 3.81967 15.4946 41.2882
1 7.10632 46.6497 29.9954
1 0.737564 12.3264 35.175
1 4.16378 0.763955 47.1128
1 10.7699 20.0829 47.5153
1 14.5125 33.1763 28.6268
1 44.4127 7.46758 44.8247
1 2.8047 7.45888 47.8948
1 39.1784 29.2776 47.2217
1 10.796 10.9635 19.2017
1 34.2754 34.4384 27.0723
1 25.3667 16.3542 40.5513
1 8.67219 7.84055 28.7282
1 33.7166 44.599 2.81119
1 18.0255 35.6587 10.6191
1 31.1167 16.3115 38.9218
1 49.1143 14.2524 40.1902
1 36.0976 25.898 19.9723
1 37.4312 49.6965 21.5491
1 27.6124 37.7407 7.27553
1 32.3265 35.7889 43.1987
1 18.973 36.0459 44.6444
1 46.7812 22.2962 1.26677
1 43.6621 45.4789 2.108
1 37.7776 6.67904 37.4496
1 47.9477 34.349 32.3193
1 30.9491 25.1554 24.5344
1 7.78474 6.89675 21.3516
1 39.1669 32.6501 30.5202
1 8.8474 5.84262 34.8826
1 14.8241 47.8719 24.3455
1 30.7982 47.6679 47.7824
1 10.9702 47.582 27.9817
1 25.0069 32.84 32.0716
1 42.1385 21.6697 44.0464
1 47.7382 0.625965 34.8204
1 1.66603 19.6093 39.5231
1 10.1187 46.2016 13.1225
1 38.5822 19.1022 28.7406
1 41.576 40.5256 29.2996
1 5.79326 24.9808 38.8
1 2.74448 25.3097 18.0045
1 10.8315 0.190623 15.317
1 8.2623 0.846827 20.1803
1 44.0009 41.2661 11.0532
1 45.4653 10.8348 1.16908
1 0.569705 34.0662 0.324575
1 13.7787 7.12016 37.4267
1 41.7158 49.1736 0.0492609
1 46.1419 18.1129 47.9753
1 37.7634 20.3286 1.37563
1 25.4324 20.2366 19.5455
1 40.4187 10.709 12.1256
1 5.67808 31.0676 48.1811
1 39.0593 31.9271 7.57433
1 24.0819 42.5368 41.8348
1 6.84626 49.1542 24.1551
1 24.8616 13.9331 29.8755
1 49.6592 47.4415 34.1941
1 30.9756 26.8277 45.7862
1 23.2782 3.87782 30.2844
1 6.96355 19.2 23.4408
1 48.5954 4.36799 22.3385
1 31.611 32.145 24.9409
1 7.83727 45.9879 36.9931
1 7.03422 35.2705 1.60923
1 41.3206 8.3732 8.53726
1 39.7263 48.2254 36.9896
1 36.957 27.8803 44.5168
1 45.5229 8.99174 7.58965
1 7.33751 15.4458 44.5289
1 42.2448 22.0309 29.3452
1 46.4638 14.6413 49.2861
1 32.4024 47.1358 1.72229
1 6.73662 40.2969 39.678
1 15.3139 2.30477 32.132
1 33.2397 2.13494 3.84236
1 13.6065 6.09556 40.9658
1 5.56539 14.4762 9.74063
1 7.07246 46.1451 3.65933
1 24.0083 26.8013 0.163688
1 31.1015 39.8334 9.34598
1 36.6897 23.1518 27.249
1 16.0693 43.8628 22.4728
1 45.5466 10.168 23.1732
1 6.87371 40.7497 27.77
1 15.1529 36.3347 13.4111
1 2.7406 13.059 10.4899
1 41.5113 27.3358 17.4869
1 25.4297 22.5269 26.5274
1 28.4906 21.1651 0.697461
1 11.6207 49.356 43.0689
1 26.8979 42.8283 0.0390992
1 32.3796 48.1954 17.645
1 13.3809 25.5961 19.3788
1 39.5354 7.74488 29.2146
1 12.2376 4.01751 0.351883
1 27.1592 39.68 34.4953
1 5.61043 23.754 44.9371
1 33.2609 41.6269 36.9783
1 39.9698 45.7035 18.7861
1 41.9815 8.71233 44.4463
1 14.0248 44.5097 44.6011
1 7.5314 40.442 14.672
1 17.4147 5.11559 48.5391
1 47.9705 7.30466 47.6751
1 3.48753 40.4616 31.0559
1 28.1137 24.8866 43.128
1 0.831334 46.1916 47.4319
1 32.2254 9.24702 6.89724
1 15.5751 42.211 32.5876
1 31.1933 10.5093 33.1587
1 10.8259 43.1103 30.3051
1 48.4538 1.085 27.3152
1 29.9856 32.4419 12.0867
1 4.11721 11.5711 35.9453
1 37.0263 30.8028 12.2381
1 34.102 1.62711 11.4187
1 1.12362 5.31787 23.1342
1 20.9467 9.86842 12.6756
1 11.6487 12.0734 6.49391
1 18.2174 1.39284 13.0406
1 4.41811 7.04914 42.5988
1 2.69154 45.2475 1.20386
1 32.6988 19.3239 2.25197
1 4.26609 44.9682 32.1083
1 48.0069 38.6841 22.9844
1 17.8167 20.1655 47.2802
1 44.1856 43.1454 44.2335
1 6.81922 15.6947 2.45146
1 33.1808 17.0338 35.1832
1 12.4583 12.6785 23.5134
1 3.66421 46.4662 13.563
1 38.0231 6.53197 3.83351
1 18.3127 24.7357 44.5968
1 3.75745 1.53356 22.0704
1 35.7382 32.4422 10.6863
1 16.6107 46.2654 46.8264
1 41.698 13.4731 5.88267
1 9.36309 0.856595 40.7068
1 0.49061 20.9753 26.6171
1 38.5193 20.0338 3.95378
1 26.0284 37.579 44.825
1 3.19641 25.8412 14.7593
1 7.9726 37.7818 36.4777
1 35.222 18.4801 22.2971
1 8.10403 16.2906 29.7461
1 16.9463 8.71013 18.5599
1 44.4187 3.68567 15.4406
1 18.454 14.5348 12.5692
1 8.11143 10.2081 40.8882
1 41.0644 8.69299 13.9116
1 7.70175 30.2112 33.588
1 27.1987 32.5095 30.5495
1 36.1218 43.0662 23.7421
1 22.096 45.6483 3.94643
1 31.0878 4.57627 35.2058
1 43.7409 46.2442 37.445
1 22.8639 5.56217 28.0003
1 20.4244 38.9889 3.81835
1 2.49757 13.6387 5.34258
1 14.0298 5.53122 34.3227
1 2.64586 3.06396 6.50762
1 33.5421 41.5471 28.1256
1 19.1933 12.5729 36.7262
1 28.1692 45.9509 30.7121
1 27.8807 22.3097 39.0828
1 14.4587 2.61043 18.1748
1 18.8491 7.82521 48.487
1 16.062 13.6277 5.19139
1 45.5198 48.4401 20.6256
1 29.1652 40.9364 30.2057
1 3.78843 24.5601 31.2139
1 47.0674 33.1664 10.5725
1 0.927533 22.9522 41.4934
1 46.9478 12.4806 20.527
1 37.1882 5.27794 35.1343
1 21.8512 0.682152 8.35748
1 24.0288 27.0268 34.8325
1 34.2658 46.3752 25.287
1 17.514 37.9378 2.18747
1 31.1645 8.47515 2.71194
1 25.0945 37.8561 17.1276
1 6.75102 11.7175 29.2282
1 11.7281 36.3064 4.08811
1 49.5257 22.2364 6.44338
1 48.6269 41.6912 8.58519
1 47.4936 35.3203 13.247
1 13.91 5.26604 19.1065
1 44.3661 45.9987 25.0423
1 47.1077 7.2679 10.108
1 39.2842 44.2285 11.1598
1 16.6909 29.7282 28.487
1 16.9704 11.9838 7.3961
1 22.8936 9.22781 7.3252
1 16.0699 24.1067 6.17706
1 0.783485 46.3433 8.50723
1 44.7466 39.7995 19.5523
1 26.592 23.719 16.8507
1 37.9411 18.7469 25.2124
1 42.8831 19.5515 28.7674
1 21.4617 33.9115 42.0458
1 11.715 16.0303 49.1668
1 6.49751 4.80383 2.53199
1 41.2297 8.78424 41.6002
1 18.093 46.6834 12.6008
1 46.8751 5.92676 20.829
1 39.7028 35.7141 13.7161
1 16.9791 34.0197 28.2551
1 44.4409 33.9877 11.3339
1 36.8684 1.86447 17.696
1 27.6467 17.3565 39.1139
1 2.32857 13.8144 33.7798
1 37.4403 40.4898 22.3332
1 8.10747 28.7822 39.9091
1 10.4 27.4049 7.26374
1 26.927 18.6232 43.3559
1 35.751 9.07554 9.14701
1 4.50471 26.6796 34.8946
1 25.3454 42.072 35.5286
1 40.31 40.9543 18.7503
1 41.3638 11.0795 9.78361
1 26.3754 35.7322 40.6128
1 2.70531 48.7711 42.6151
1 36.3615 9.02493 47.7195
1 32.7159 37.1727 36.2147
1 22.8255 45.2697 49.5093
1 18.9963 2.45588 28.4279
1 47.8074 4.55842 40.9499
1 28.8128 45.7132 25.8875
1 3.12486 12.0315 29.0144
1 36.0396 31.2517 17.3174
1 40.3153 23.6483 33.2103
1 49.2666 19.7329 1.21356
1 7.23205 32.7077 19.1665
1 21.6066 31.8126 33.676
1 31.2951 6.83353 15.9826
1 18.2365 5.52128 13.8859
1 39.9621 33.251 17.6497
1 46.0884 14.1463 4.13767
1 4.51355 45.411 17.6308
1 6.81569 35.17 21.9808
1 25.7487 2.6886 40.1878
1 47.3898 0.730615 11.4071
1 28.4688 33.6905 44.3878
1 33.0121 44.9592 10.8218
1 44.85 48.7326 47.7091
1 15.0401 9.4476 49.7381
1 25.1673 3.7158 23.5771
1 3.6872 21.7131 16.3299
1 10.0749 5.35422 6.24012
1 29.2762 6.76024 19.9043
1 32.688 4.799 6.8804
1 33.7234 31.5169 18.8357
1 37.0105 16.3289 35.2315
1 14.907 23.459 1.60838
1 41.8786 8.74689 5.02465
1 35.0593 11.5309 40.9074
1 20.5313 44.575 40.9068
1 42.9659 30.0887 17.0594
1 22.0636 37.5799 2.12548
1 10.1809 42.6057 3.35681
1 10.3195 42.209 25.3003
1 49.3718 39.8168 6.71437
1 7.95548 34.8885 48.7008
1 41.4793 23.9686 23.9926
1 46.0004 44.6321 5.97905
1 41.14 33.4231 45.0447
1 37.8957 48.0532 12.3542
1 23.5279 29.8931 48.0115
1 10.9879 29.422 2.63002
1 23.7096 16.2811 20.1487
1 27.1838 7.93075 0.875203
1 5.49315 3.51985 13.1589
1 43.6229 31.1469 7.28509
1 5.16603 29.4882 7.20261
1 35.7438 22.4414 48.1256
1 21.2082 45.6291 34.6659
1 38.6759 21.3318 42.2228
1 40.3112 34.467 1.47847
1 46.694 17.0169 20.7369
1 24.5444 44.019 3.84823
1 20.5477 26.9046 21.0282
1 47.7727 32.0869 44.6394
1 47.9046 22.7871 38.522
1 12.1969 40.6473 45.427
1 14.7716 21.6583 16.4101
1 10.2513 4.34463 16.759
1 9.54581 17.7356 31.5214
1 42.5181 48.0222 2.84708
1 28.2846 18.448 18.1146
1 13.0038 0.0524339 8.81247
1 6.44141 3.16942 4.81893
1 11.2563 14.4736 39.5028
1 5.2247 2.3638 36.9625
1 4.63461 17.9359 46.137
1 21.3154 35.2974 22.7705
1 30.1865 27.9781 42.2588
1 16.705 34.288 8.65872
1 36.0341 23.2061 45.1358
1 44.1325 7.30855 41.8227
1 29.0625 16.9691 49.5046
1 24.4118 39.7313 10.5677
1 2.1448 36.3403 8.28203
1 44.4146 23.3443 3.87518
1 32.0625 40.299 31.8962
1 33.192 20.0383 7.08032
1 23.9166 25.0226 19.6562
1 7.27005 1.28036 13.5479
1 9.06118 35.6278 32.673
1 3.33057 32.0343 28.482
1 22.3066 28.621 13.5294
1 45.7096 6.69334 29.4581
1 34.9074 10.7118 43.8425
1 9.88833 12.6708 2.56536
1 14.3827 31.6683 42.349
1 0.751329 37.2287 37.63
1 0.12002 42.8462 21.3866
1 42.3697 24.6474 41.4838
1 41.5431 7.36705 24.6942
1 42.447 20.3601 21.0175
1 12.8534 1.94719 39.5528
1 11.8488 34.4406 0.179546
1 25.2742 32.7063 27.1383
1 11.0169 5.22207 31.4248
1 34.6038 38.874 3.33907
1 8.69628 47.3969 1.36896
1 1.22548 19.4574 13.9618
1 6.64181 44.9532 10.0801
1 40.7959 16.0269 3.85752
1 46.9822 31.5429 21.9264
1 39.0776 48.9187 32.7292
1 33.9192 31.485 25.9467
1 39.6596 38.5073 40.6263
1 46.3348 4.96631 37.8602
1 23.8292 37.3156 37.376
1 8.45159 15.1542 40.7004
1 34.2262 35.7664 41.1132
1 33.8536 49.0912 25.8833
1 21.1703 45.9885 12.6439
1 3.9665 1.18242 16.2787
1 34.8216 17.0965 3.94122
1 4.94949 47.4339 43.9934
1 15.1143 44.1535 17.8067
1 6.80107 46.8183 32.692
1 20.2482 12.8373 32.6792
1 7.46393 49.6271 4.70086
1 0.0463596 14.2387 6.56843
1 48.634 48.0235 2.07066
1 30.3017 30.4414 15.9175
1 22.8587 9.22806 40.9406
1 40.6649 25.1482 43.8105
1 2.92284 9.14056 39.283
1 5.38073 20.5074 25.5241
1 35.528 29.9138 15.1992
1 0.366705 32.98 44.9169
1 19.7078 31.8247 41.8016
1 17.3126 3.00948 33.6629
1 4.85158 29.0364 36.3025
1 3.70349 18.8195 12.4207
1 48.9927 14.0574 3.81195
1 2.06518 26.8073 9.24492
1 31.8347 25.8398 9.71821
1 31.9975 6.67569 44.134
1 43.6179 42.2526 31.1158
1 27.1889 25.5395 20.0207
1 8.97737 10.9349 26.0111
1 37.4568 28.6216 37.4551
1 38.1731 45.5712 4.70968
1 14.9835 47.7944 12.7262
1 33.8564 30.7411 31.3545
1 27.4218 4.20324 7.22914
1 26.146 47.3788 18.3473
1 39.8313 19.6058 49.4475
1 1.70192 28.8943 45.9744
1 47.2943 32.8002 2.75663
1 15.5252 15.8811 1.27301
1 35.3702 32.7688 45.278
1 4.22994 22.7378 24.244
1 37.4572 11.8201 34.7767
1 4.61655 16.1214 12.3545
1 49.1751 29.2282 8.03001
1 46.0792 36.6952 22.8235
1 43.0081 11.1557 41.3521
1 25.6991 41.6882 38.3184
1 47.6945 32.4398 18.8456
1 17.4746 1.83839 8.57852
1 29.1872 34.1322 18.4325
1 36.1285 47.1901 39.4593
1 23.086 45.6494 20.9443
1 6.19193 37.9065 40.674
1 6.29134 5.82609 14.7323
1 41.8008 38.5418 27.4632
1 37.1121 37.8225 29.9697
1 26.4375 29.6167 29.2471
1 29.2996 37.106 12.5397
1 30.9446 41.8372 19.6036
1 11.6225 17.3698 24.5941
1 41.7168 22.6255 35.6734
1 5.88053 17.1319 20.6359
1 5.40847 17.2827 26.3618
1 3.8932 33.8176 4.58402
1 7.38469 0.403632 36.3746
1 41.4916 16.479 25.7858
1 12.37 33.6897 21.818
1 3.19618 26.7641 42.3149
1 1.64509 25.6778 38.2394
1 24.4329 24.9379 47.5757
1 46.2021 44.8027 47.9814
1 27.5453 43.4254 38.9187
1 8.858 13.0288 49.554
1 48.6447 10.3544 37.8636
1 36.2353 1.57284 38.9703
1 33.5211 12.7347 14.2177
1 1.51245 39.7309 10.8612
1 1.26371 42.163 34.7103
1 8.00846 7.43077 12.5222
1 13.7116 36.7542 45.9633
1 8.16142 14.1743 13.7151
1 7.69103 29.9817 8.39647
1 36.2805 24.9397 15.2978
1 24.7791 17.5244 5.01994
1 13.9641 23.5688 33.942
1 32.8688 22.8956 46.4239
1 31.1624 47.2977 3.84638
1 6.45368 13.5872 0.800037
1 9.64177 47.2098 15.3947
1 21.0458 32.7538 15.9612
1 49.3301 26.9501 20.3003
1 6.32118 8.99521 48.6861
1 22.6083 7.75979 14.1706
1 20.3745 36.9646 21.2915
1 29.8907 25.6632 16.6004
1 39.8272 28.27 31.3173
1 46.4935 48.5144 43.2546
1 21.3222 29.8638 41.8419
1 26.8813 42.0984 43.1078
1 8.02499 17.132 42.2261
1 15.1674 38.1658 28.7022
1 7.74959 4.32079 43.3783
1 21.6513 12.2994 13.8732
1 36.0213 48.8088 44.7312
1 7.42026 44.1796 44.8642
1 22.1275 33.811 49.7227
1 24.1269 1.96336 28.1744
1 13.9409 40.6681 12.408
1 16.0968 45.0225 5.78013
1 22.8919 32.7587 30.2577
1 10.0192 25.273 16.6367
1 45.4679 43.237 10.0181
1 0.478503 47.2247 42.2691
1 20.9407 25.6177 40.7833
1 19.6291 27.0772 25.592
1 9.37695 26.9907 2.93156
1 38.5883 20.7457 19.9407
1 4.37979 9.49036 43.9109
1 46.2635 34.0065 48.2902
1 3.08609 25.1063 20.6696
1 16.5847 8.40102 21.1568
1 36.9297 41.4571 15.7352
1 0.344746 29.9286 34.8272
1 5.19961 11.6877 2.18788
1 3.04591 2.91907 12.8064
1 45.4221 37.5631 6.47843
1 24.2211 31.3785 6.86715
1 48.4413 31.3737 32.5895
1 34.257 44.9075 15.6213
1 41.18 10.4255 2.98706
1 15.6497 32.6606 46.6155
1 21.147 41.8481 2.78298
1 23.7124 44.9942 23.987
1 16.6137 0.97422 23.9799
1 45.9757 41.8675 49.2827
1 35.8132 1.48408 33.8254
1 10.9448 1.86064 28.4333
1 11.3361 25.2646 3.0518
1 45.4549 35.527 37.0138
1 43.2286 7.06668 49.2482
1 27.9289 10.3939 17.1532
1 18.1014 31.7728 29.5758
1 19.2276 13.3223 14.7765
1 0.286744 31.5545 23.1335
1 8.13554 37.0102 28.8615
1 20.4113 19.1197 39.1517
1 45.2231 0.650159 39.7746
1 27.3597 17.9976 22.3952
1 30.5417 4.03466 17.4821
1 34.124 12.2935 32.742
1 42.6015 34.9703 20.6831
1 25.6844 10.711 37.1041
1 30.3561 22.4179 35.8372
1 20.9588 44.0498 36.7462
1 33.2678 15.8034 49.6005
1 48.3171 35.3301 10.2751
1 40.3519 42.3708 25.0617
1 26.4072 14.8517 9.67799
1 29.2072 0.916517 19.3316
1 39.828 12.516 45.886
1 21.5603 41.636 36.345
1 7.95808 23.4144 23.5072
1 30.7259 18.2309 34.6572
1 12.9883 30.0951 19.8243
1 48.2417 37.8569 49.5393
1 5.52539 9.18633 19.3512
1 38.3316 18.5917 32.6133
1 21.9521 18.3499 17.2787
1 29.4685 14.1114 22.1021
1 40.1309 4.93593 13.8406
1 19.3382 30.396 33.6891
1 9.62517 19.2157 41.2658
1 19.5785 47.2039 19.0744
1 21.4004 25.1814 1.04338
1 9.5499 35.2566 21.4503
1 34.8635 30.8857 6.33815
1 26.426 46.8154 15.6741
1 27.8845 7.0445 23.5873
1 36.2537 28.4138 23.2931
1 21.2511 20.6919 24.8958
1 19.2135 40.8376 19.6149
1 21.5052 42.3892 46.6924
1 15.9597 14.9219 21.4418
1 48.7544 9.10337 35.4048
1 31.5412 34.6575 32.7092
1 37.1079 21.5933 35.2075
1 6.23593 41.6983 19.3949
1 14.4263 30.9286 27.6327
1 25.8979 0.0153638 45.4848
1 30.0349 2.40268 45.6368
1 42.0431 6.31673 3.9031
1 46.8636 32.5727 7.85031
1 2.72494 34.6881 31.6815
1 12.0103 35.8046 41.6094
1 8.44066 48.353 38.0145
1 25.4612 15.4658 2.64197
1 6.72833 31.7757 9.752
1 13.2483 5.88689 43.5534
1 41.2641 20.1393 35.4923
1 7.91494 23.3826 46.4166
1 14.8435 40.8577 6.58008
1 43.1325 26.5736 13.5802
1 48.1485 29.0436 22.2093
1 43.0097 30.5896 24.0154
1 44.5721 35.5618 49.5846
1 17.1609 3.24589 36.5074
1 28.8942 11.271 47.7405
1 31.4193 20.7795 23.1071
1 47.0146 30.6045 4.03657
1 3.77476 18.5909 0.566444
1 1.82306 9.37824 6.4669
1 27.8245 47.9013 12.1394
1 28.1345 22.2938 42.9633
1 45.1028 12.912 8.77618
1 34.1238 13.7892 1.50074
1 34.5595 32.5238 36.4677
1 27.5478 24.7971 11.8475
1 40.591 36.5044 28.3547
1 29.5186 3.47144 48.1397
1 45.9153 23.147 41.8765
1 18.5683 18.5244 26.1354
1 13.0573 31.7115 46.3267
1 33.7317 29.4417 12.7515
1 2.32448 48.5446 47.8008
1 25.5724 2.76554 18.9607
1 13.0786 37.3528 23.9626
1 23.5053 25.4226 14.1425
1 9.71084 30.758 5.93134
1 19.0718 32.8814 37.45
1 24.635 30.8947 2.39254
1 8.23834 27.4551 25.2211
1 20.1449 44.1986 22.2827
1 10.3412 10.9113 15.1792
1 13.3031 32.9082 4.5456
1 12.1157 23.0523 39.7559
1 38.1477 40.9387 26.4374
1 0.278947 16.8067 47.8322
1 36.9574 47.1868 17.6826
1 14.5276 20.0129 24.3022
1 45.1812 12.2592 27.5898
1 29.7928 38.82 38.7024
1 6.55932 31.0714 12.3383
1 30.8092 44.5813 4.67123
1 46.4723 39.8421 6.08472
1 5.62083 44.2862 36.7417
1 37.5906 38.1832 25.7675
1 30.5741 43.0901 49.3319
1 15.3677 12.4181 46.139
1 6.80973 26.538 5.56279
1 47.2407 39.1334 14.6024
1 49.2209 1.80483 40.8632
1 49.4775 45.2562 30.9378
1 39.1741 42.8334 49.3938
1 11.9772 7.64421 3.31483
1 5.19485 22.2757 38.8705
1 28.1562 43.9968 41.4146
1 19.5652 34.4972 18.1576
1 36.6014 48.9156 27.8641
1 0.852595 23.9671 31.7683
1 43.7313 18.9603 44.6754
1 46.4598 39.427 48.1015
1 45.3448 18.069 3.3795
1 33.3289 5.82049 10.5086
1 38.1297 43.9902 37.721
1 28.9886 36.1035 16.4391
1 46.1688 42.7861 30.3016
1 25.756 31.0859 13.729
1 26.1812 41.8635 25.1939
1 43.0416 5.37073 28.5023
1 33.6467 17.0101 24.117
1 9.27758 41.3267 23.058
1 19.5907 3.15707 26.0766
1 21.955 47.6248 17.1943
1 21.675 25.216 25.9849
1 46.0568 0.778554 37.0467
1 7.07013 32.7105 36.9591
1 4.68876 46.4205 28.9385
1 29.3231 11.0651 35.2358
1 47.6361 3.23581 4.12364
1 2.01681 49.1642 11.0839
1 13.1266 29.2507 45.5921
1 45.9866 10.7248 18.8093
1 11.7433 14.3583 20.3997
1 1.9798 20.589 9.75676
1 25.7948 40.5873 21.356
1 0.442112 27.5082 33.5984
1 12.451 49.5327 12.3544
1 43.1123 37.4516 39.4557
1 19.4331 8.58008 30.6162
1 39.8805 31.7182 11.708
1 40.3698 29.9434 41.7636
1 34.8669 25.7161 36.3906
1 36.651 48.0922 7.97917
1 9.37297 10.2825 35.8435
1 1.83965 39.0808 8.4686
1 46.647 32.0703 0.219798
1 30.1869 21.9819 46.1298
1 43.4433 19.3831 7.43275
1 10.8842 6.97276 39.856
1 16.7274 43.267 41.7342
1 41.6913 1.03253 36.2293
1 24.0924 34.0737 22.6081
1 10.638 39.8777 40.9377
1 22.2465 19.4713 6.92725
1 22.1988 19.0734 49.7041
1 0.975328 24.3461 23.7654
1 36.6943 47.1393 42.271
1 13.1621 11.7434 9.05817
1 21.5403 38.2381 17.5284
1 41.2774 44.6368 13.3634
1 9.90443 8.99925 22.1279
1 36.0027 7.29528 7.22529
1 19.0472 40.7128 46.2401
1 16.1089 48.9354 26.6975
1 8.85856 32.7001 23.0397