4096
 Atoms. Timestep: 320
1 5.02083 32.4927 17.0823
1 26.3487 14.64 9.67038
1 36.6583 2.93381 27.8457
1 23.5289 40.0141 8.76486
1 49.6755 11.4303 21.8274
1 16.8446 47.1001 39.1271
1 26.234 37.9298 4.42117
1 35.2255 43.8515 17.72
1 1.65401 47.596 38.6018
1 39.9357 1.49691 26.3995
1 27.9271 13.9309 2.84993
1 39.6283 46.5443 32.6194
1 12.8249 1.0995 7.39703
1 4.23226 17.5351 25.8444
1 32.9681 28.8026 6.77367
1 26.1078 7.21386 14.5152
1 36.7682 6.61567 40.4407
1 5.17621 24.5002 2.25006
1 15.9284 11.3507 16.6891
1 6.75457 23.6499 8.40925
1 39.0345 10.2514 8.64992
1 15.5464 25.7837 12.7591
1 4.01552 35.4816 39.743
1 48.7947 17.9538 22.5149
1 15.4474 9.54982 43.2989
1 47.1806 35.0718 16.041
1 5.82796 10.4215 14.4757
1 14.5492 13.31 21.2848
1 13.5068 11.6226 32.2841
1 3.2276 44.0738 46.1108
1 29.5997 42.6829 40.9749
1 7.54685 1.575 13.2244
1 34.0826 48.8088 11.8971
1 7.34856 27.1123 13.8792
1 29.0275 45.4475 45.7357
1 8.51385 43.7203 22.7078
1 12.4891 16.4623 3.21305
1 23.6879 29.298 40.1897
1 2.96487 31.9901 9.15623
1 39.5357 13.814 17.2493
1 29.9602 38.1084 32.0612
1 33.1013 29.6584 24.27
1 3.32596 40.8798 12.6832
1 37.6306 35.7823 45.3509
1 3.89254 5.43319 13.4919
1 12.6093 32.4226 35.271
1 42.5704 25.5382 29.4864
1 3.46259 33.1767 13.1129
1 7.53573 3.37626 24.3949
1 13.9348 35.3359 10.7792
1 12.466 5.52866 22.752
1 32.8715 10.6484 45.7509
1 12.2506 14.18 36.0892
1 9.55707 26.4387 42.7882
1 35.8797 20.8971 3.83909
1 33.2229 26.457 30.2948
1 25.773 20.2525 14.2946
1 46.0019 46.8408 37.3532
1 35.2282 1.08807 49.6304
1 21.2393 22.912 6.99539
1 33.7858 29.9927 31.7414
1 9.25751 42.5613 36.5554
1 45.1774 42.6887 2.67368
1 12.7721 14.4446 45.8432
1 43.8812 47.4907 7.60786
1 6.29062 1.92317 21.5749
1 41.5349 8.26746 45.4406
1 44.053 9.25658 20.0137
1 21.2788 18.9083 40.0431
1 41.9681 19.995 5.42986
1 27.2484 3.30743 28.0547
1 28.6579 26.376 26.4066
1 17.4771 4.3835 24.1121
1 31.0778 34.1493 49.0457
1 27.5302 0.249178 22.372
1 12.0908 2.39072 31.1883
1 42.623 28.5043 4.94338
1 15.6043 36.7866 20.8986
1 23.9398 22.3818 16.6895
1 3.00391 26.128 7.96466
1 36.8279 5.48699 45.7082
1 31.6457 3.17594 27.9024
1 14.3472 6.38156 7.79819
1 2.72005 49.2753 14.6944
1 27.9379 18.1872 14.9944
1 22.4119 47.0149 41.1616
1 18.6288 45.1606 12.6016
1 11.5321 39.0417 49.4347
1 1.3125 17.7693 13.0025
1 40.5903 40.5551 30.8703
1 24.8732 4.63367 29.0709
1 8.94455 34.3766 10.3606
1 38.37 4.29822 48.7821
1 32.4817 2.53825 18.3569
1 15.3612 9.78263 25.524
1 47.0771 12.3817 17.5803
1 20.5083 2.68382 34.4418
1 14.7773 49.1526 47.6717
1 20.5041 2.26395 48.8826
1 7.83403 36.1308 41.6539
1 35.7955 19.8187 31.4485
1 20.4846 16.6985 49.2279
1 22.286 26.9964 5.18562
1 17.0205 37.2793 16.9727
1 4.96037 1.94117 16.7487
1 38.8195 34.01 22.2177
1 48.4805 16.0594 8.9198
1 7.05991 6.22851 4.53594
1 38.6988 10.7621 42.8844
1 10.6507 46.9366 46.0877
1 35.4952 37.9894 22.2786
1 15.2386 41.376 19.5305
1 30.4902 31.6565 28.8118
1 1.76355 34.9243 44.1306
1 25.3911 22.2083 9.38165
1 27.5812 22.9007 6.4817
1 23.5424 25.7762 38.1726
1 39.6237 4.03415 31.4063
1 45.8309 24.2649 27.3258
1 21.6693 47.2239 15.1093
1 12.2716 26.9619 1.86188
1 38.6282 12.2288 13.7936
1 43.3812 14.5067 37.0833
1 20.8967 38.2508 2.5838
1 14.6087 1.50785 31.1129
1 43.0762 20.5511 24.0434
1 35.9567 36.2054 33.0317
1 -0.119599 15.6613 11.5219
1 31.9888 1.13653 42.103
1 42.4087 9.10845 3.11667
1 12.1478 38.8191 21.3051
1 37.4647 25.6215 25.8272
1 19.9889 5.62441 0.521302
1 17.0886 39.257 11.2714
1 5.25569 5.59619 31.0351
1 46.2249 39.1926 10.0515
1 3.58496 20.2871 6.95753
1 20.4133 40.4114 23.1242
1 40.4678 4.80513 34.2951
1 0.899845 36.1046 20.4914
1 23.3744 12.509 39.3683
1 31.9409 34.5837 29.2944
1 19.2561 11.8894 48.4128
1 29.747 49.3123 9.25487
1 48.184 29.3906 20.9737
1 2.49662 45.6287 18.2138
1 3.49938 13.9504 4.86211
1 39.8928 45.7396 43.5923
1 14.8898 21.0679 45.8718
1 43.5879 26.7806 9.55276
1 13.7078 21.029 2.62909
1 34.94 49.1607 18.17
1 13.4098 22.2858 28.6853
1 2.62931 46.1438 30.2809
1 5.71086 25.4356 17.9436
1 48.1527 49.4457 14.6718
1 38.1383 8.16079 32.3319
1 23.2613 7.44423 21.5698
1 34.4885 47.0881 4.8538
1 38.5664 13.4075 1.46472
1 33.404 48.8823 45.3416
1 16.3196 4.75229 7.04859
1 48.5859 12.1201 32.8899
1 28.7804 16.2894 8.66204
1 31.4415 2.1986 10.7697
1 47.8038 1.03107 9.34827
1 31.5322 14.9327 15.6595
1 41.7523 30.6814 25.5308
1 35.0714 39.7777 9.26852
1 21.7812 12.0604 48.0304
1 34.714 6.71103 23.3922
1 33.9591 31.0075 41.0177
1 10.2624 7.17049 24.9255
1 27.1134 27.5905 41.7702
1 33.7268 37.8668 13.8957
1 22.2924 36.613 49.9068
1 7.19978 8.1847 2.67155
1 26.6745 1.12682 26.5909
1 21.0623 30.3674 32.0789
1 10.2318 34.0479 38.4848
1 47.0672 20.5152 25.7854
1 13.7946 7.1448 3.80845
1 32.6923 38.3632 32.2026
1 14.5896 23.9183 1.47668
1 13.2413 3.57497 39.5704
1 31.3993 19.8776 28.6308
1 24.4976 7.29979 34.2969
1 9.09376 30.8921 15.9929
1 30.5203 46.1064 35.1256
1 6.32072 1.48756 6.93005
1 -0.125173 33.372 39.1438
1 15.6806 33.2705 38.1217
1 33.8828 27.6648 43.2373
1 7.71371 47.1375 2.15976
1 48.5857 8.72542 21.5007
1 27.5084 1.69437 43.3012
1 46.5143 5.57452 9.59176
1 33.4358 24.3077 18.7242
1 37.4073 21.7596 27.4202
1 3.00575 18.4204 23.5209
1 18.6116 14.5627 21.4499
1 15.0721 14.1159 4.46887
1 6.04174 17.6961 14.3739
1 0.233559 10.5986 18.631
1 44.388 7.50641 47.2674
1 9.42382 44.8697 11.3165
1 17.3088 17.1443 6.81036
1 41.2018 33.9524 12.072
1 24.8652 1.58922 11.7288
1 28.5473 23.5266 27.2513
1 40.9613 47.3831 26.0236
1 40.4592 0.156214 21.2367
1 38.5695 19.8706 38.5374
1 5.71683 44.6772 48.3364
1 17.1426 38.6791 14.1428
1 -0.0220181 6.33074 22.1441
1 13.5386 32.3978 27.0374
1 27.4928 36.3387 20.4025
1 4.15506 11.2113 5.2364
1 45.2099 6.06387 6.00785
1 22.8163 42.7585 17.808
1 4.4014 41.9124 48.563
1 33.031 8.783 0.209348
1 16.3001 6.30504 43.2659
1 27.4198 32.6725 14.3837
1 22.7774 22.5403 10.6959
1 30.6247 23.5819 30.66
1 0.806321 14.7209 18.6142
1 18.3259 15.2445 0.89457
1 23.0043 38.4822 47.523
1 22.7641 28.2435 7.54157
1 23.4642 38.4684 11.1289
1 21.8441 27.6838 14.9591
1 23.5791 5.18261 24.6353
1 32.1406 14.4241 40.047
1 29.1672 36.0823 16.9389
1 13.0012 18.1347 34.1511
1 47.929 7.53897 5.59471
1 47.3505 24.6872 9.91138
1 46.0689 28.1662 43.2676
1 33.5709 20.1052 14.0006
1 19.0055 41.098 37.1046
1 29.88 21.9477 33.4584
1 48.0163 12.1618 10.3594
1 12.8072 45.0859 45.5377
1 8.26613 16.583 24.3627
1 19.9041 35.8993 22.3898
1 15.3971 33.5777 42.4826
1 36.5447 4.11182 5.4728
1 25.2676 5.71363 22.6244
1 39.5561 38.8166 1.11234
1 20.9825 18.9505 45.747
1 34.1192 46.1681 19.6555
1 25.4124 13.4392 40.7899
1 12.6134 16.0001 18.8127
1 11.6803 42.742 47.4711
1 43.1762 17.1817 21.9836
1 46.1546 11.316 6.64125
1 43.2154 24.7689 44.3516
1 47.5988 45.9923 41.2275
1 17.9972 12.4338 18.3193
1 13.4033 14.0402 1.30578
1 36.0793 48.6758 33.4877
1 48.2508 12.1029 42.8215
1 49.6797 46.4653 17.3376
1 4.59142 0.919915 23.6708
1 24.1427 15.9408 8.35285
1 18.2391 37.4693 39.3951
1 11.318 45.1261 6.73535
1 45.3152 31.4846 32.5629
1 11.223 41.184 24.7282
1 36.3691 21.4019 24.8766
1 40.5234 40.2487 6.6023
1 12.5119 17.2648 7.42241
1 11.8977 30.223 49.66
1 48.6512 27.4101 4.65974
1 0.811284 38.2497 32.7969
1 31.9453 20.0602 33.1604
1 32.5476 43.8914 43.7315
1 0.217499 46.0255 40.8634
1 22.8824 10.7836 0.0704893
1 17.3166 22.3675 13.7795
1 49.039 2.96701 44.4248
1 11.1155 23.1506 30.6959
1 17.8963 3.80943 11.2456
1 14.3921 23.7057 9.21154
1 10.0293 16.2675 49.9639
1 46.5953 43.937 28.1022
1 1.63595 27.2212 18.4042
1 30.4271 28.1711 27.3909
1 45.8578 19.6586 41.2648
1 3.23405 25.6906 45.0515
1 41.3916 21.5144 36.203
1 5.32622 40.7909 42.908
1 39.0269 13.3471 43.9346
1 35.625 32.4304 3.58571
1 39.6815 10.4935 11.9483
1 29.9007 22.8366 41.5329
1 43.961 20.1912 29.3218
1 26.8683 5.37433 44.1489
1 3.33605 36.572 11.9014
1 11.8838 32.5779 9.25826
1 27.041 42.6111 19.3017
1 21.6582 8.59467 25.315
1 47.0189 4.99745 40.1647
1 35.6782 19.9234 10.9476
1 12.3054 5.13867 17.802
1 46.3921 9.64871 17.7237
1 8.1576 11.6134 15.67
1 16.1829 28.1758 40.6464
1 10.9778 34.2766 30.9093
1 40.0038 14.1041 49.1628
1 4.53847 45.5324 36.8469
1 41.7836 48.3553 13.5619
1 43.1902 33.6666 26.4941
1 44.2314 32.4535 43.7449
1 31.4825 7.25491 48.4748
1 3.17616 16.7419 8.53988
1 37.9655 13.5195 39.6081
1 20.4579 0.574037 26.1548
1 46.1886 17.318 9.0007
1 30.8043 24.6746 6.26786
1 43.8053 29.586 36.1448
1 8.35625 42.5241 29.9245
1 11.5324 48.9431 28.2533
1 0.806301 28.8873 40.1444
1 3.79785 36.7295 35.5445
1 2.26527 15.3577 40.2802
1 42.165 18.4272 9.36844
1 1.29886 6.08343 0.755069
1 31.3937 35.7204 22.4508
1 18.9528 11.3521 12.9121
1 14.2092 40.8008 21.817
1 32.8447 42.2996 27.3591
1 44.8355 16.9757 6.68171
1 27.2503 42.7238 11.9585
1 43.1288 38.2352 33.2147
1 42.5791 2.55629 45.4202
1 3.8698 41.7498 32.2767
1 3.21313 4.95383 34.2464
1 14.2772 1.8178 26.9148
1 44.0173 22.7751 35.4937
1 4.2601 23.7972 42.2582
1 45.184 4.66314 36.2585
1 40.4422 14.2196 40.4198
1 8.77252 16.4223 13.8932
1 -0.14103 10.9823 26.5954
1 47.8571 7.32892 41.5004
1 29.5888 27.6348 37.8342
1 30.5913 20.9733 8.51956
1 17.7827 7.86766 9.96203
1 37.1929 17.3311 4.01762
1 45.5772 33.7473 12.8624
1 20.9897 21.0346 43.9948
1 3.22165 30.2413 39.4984
1 46.5539 26.0165 29.8439
1 4.44266 11.7739 32.1085
1 5.41874 8.4292 11.62
1 0.85908 6.22135 24.7422
1 21.0454 3.13602 19.8383
1 17.3072 22.4017 18.2342
1 2.42136 37.9806 30.502
1 24.3122 6.34289 0.366029
1 16.8941 24.0813 44.8601
1 47.0802 42.1352 26.0278
1 17.0032 27.1747 37.1483
1 11.6494 7.47709 11.1377
1 30.9848 12.257 25.662
1 15.4275 19.0737 18.645
1 5.53977 15.727 29.8952
1 46.6216 2.59113 15.4991
1 39.7871 11.4469 48.1075
1 11.2263 3.01414 14.0546
1 28.6602 12.3416 44.1693
1 47.4631 36.0411 40.4585
1 39.6122 38.2201 21.6267
1 6.42704 33.9019 9.67647
1 34.436 40.6412 0.779793
1 13.4713 12.1061 6.17714
1 14.9489 17.1948 42.8064
1 13.0166 11.0016 29.6482
1 1.06987 42.4177 43.6621
1 1.39311 34.8481 34.9604
1 1.39841 0.742412 9.40356
1 34.6091 43.5501 48.4237
1 9.17509 46.5929 37.8709
1 19.1897 21.2707 7.68163
1 35.6046 15.0102 31.5881
1 13.2377 9.51215 35.7881
1 27.9883 44.4049 9.93321
1 12.6998 10.874 45.2183
1 14.5612 16.8946 16.7341
1 4.30937 28.5656 24.1893
1 43.3566 25.9116 26.7038
1 49.7359 3.66747 40.5111
1 24.2027 3.61017 31.9695
1 17.9708 34.6851 29.7466
1 21.9854 24.5144 -0.175953
1 45.5224 14.9005 0.723355
1 41.8772 12.0045 40.3498
1 37.8682 36.6644 0.0627102
1 10.494 17.1262 28.1664
1 27.2436 3.63286 18.9984
1 16.2926 28.7104 0.4423
1 5.22385 44.2078 1.81701
1 14.4611 26.5883 37.9014
1 34.4468 16.4993 27.8286
1 37.439 39.6125 2.52635
1 17.8765 18.3452 19.3129
1 22.5201 25.1365 34.4956
1 19.7798 30.4777 6.31977
1 7.34662 46.9055 42.4535
1 15.7891 41.8902 11.8427
1 12.7378 45.5549 35.0084
1 36.7802 49.7175 24.5358
1 18.4071 3.063 36.3272
1 29.3629 35.8194 24.4936
1 14.9141 22.6301 43.7281
1 2.28911 36.0902 2.554
1 3.2711 10.4271 47.3036
1 12.3111 1.4997 21.984
1 34.5242 0.413703 41.6458
1 25.8552 15.6232 28.904
1 7.36731 7.66169 27.0647
1 20.9651 26.2407 22.4541
1 25.7883 1.00092 5.48706
1 12.4451 10.4185 42.6463
1 13.3689 33.3494 32.2815
1 8.72869 42.4074 25.0759
1 49.2894 20.4173 22.078
1 27.1609 9.18593 26.2134
1 32.3626 0.537614 27.7659
1 24.3767 43.0678 34.6643
1 42.2762 35.0198 6.66637
1 36.5913 20.4266 15.412
1 16.568 3.83734 4.35991
1 24.3131 25.1169 26.9125
1 34.1889 35.5637 23.4267
1 31.5909 0.506235 31.0435
1 14.887 21.875 18.7515
1 4.60775 41.3468 28.2089
1 37.2403 6.32823 7.59926
1 44.8745 8.73915 7.02752
1 29.9843 9.68843 45.4146
1 46.9537 43.479 40.4729
1 38.2871 15.4856 27.4008
1 0.0520074 31.2592 22.1813
1 9.19755 28.7207 9.41336
1 21.1194 9.18091 2.06995
1 32.0992 31.7708 15.321
1 40.4782 0.594726 17.5543
1 25.4073 39.4406 38.8045
1 12.1281 34.7575 28.5648
1 13.6651 10.623 38.0813
1 8.51919 40.1299 28.5994
1 31.7863 12.1175 20.8395
1 17.796 31.5632 17.1259
1 15.7178 7.04666 17.9563
1 7.53809 11.574 7.69396
1 35.0342 28.0122 25.6149
1 44.7088 35.8807 39.4758
1 4.02698 19.3288 32.2528
1 7.5985 16.6971 6.9664
1 9.55673 5.6637 33.4856
1 21.7335 10.9343 13.0922
1 35.2256 47.9371 28.6846
1 22.6028 17.4784 26.0714
1 1.48307 47.2131 4.82615
1 19.3477 47.6402 6.76063
1 43.4974 34.622 48.9841
1 36.2258 33.7896 26.7343
1 25.0382 40.1339 46.1364
1 6.77414 29.5209 2.5879
1 25.8562 23.5002 48.2741
1 20.6629 16.317 24.7735
1 45.4717 14.5332 3.71573
1 11.7186 27.1278 16.8754
1 42.5634 3.44607 31.6978
1 3.26417 48.6327 17.4895
1 4.02217 9.13288 35.0008
1 36.8367 10.4394 1.1437
1 46.6671 21.9352 13.6489
1 35.142 13.4571 13.2869
1 7.49666 0.299853 39.2913
1 2.07978 5.39937 28.8424
1 21.5791 32.8523 41.3333
1 44.2852 39.0825 29.5047
1 16.1014 8.7241 49.2958
1 29.6871 43.698 21.7757
1 45.3241 29.0893 38.2935
1 8.30245 35.3209 22.9053
1 15.0614 16.7404 34.4304
1 9.69377 32.7952 12.3083
1 22.9324 4.94324 47.0015
1 15.3465 32.2389 47.167
1 13.022 30.4622 28.845
1 13.2939 49.3527 34.8257
1 2.26076 42.7996 39.4353
1 0.498122 11.1556 31.1719
1 34.5631 42.4201 42.2838
1 23.4319 47.0048 34.5915
1 5.53913 33.7181 14.7668
1 9.35661 13.648 7.76401
1 14.6997 41.9985 39.9815
1 30.6776 39.0975 21.3538
1 3.18466 31.2147 47.6202
1 1.95837 33.6673 1.34399
1 2.49984 0.714428 47.0653
1 12.7564 44.0311 43.2651
1 15.2639 38.1969 29.2535
1 17.7714 46.9662 17.6965
1 19.8424 1.07636 32.4981
1 47.7087 17.7183 47.3632
1 7.2666 42.6238 34.5388
1 44.1027 13.4741 30.2487
1 1.30979 6.22519 44.0689
1 20.3724 23.4421 40.4411
1 13.3653 44.627 32.5579
1 44.6486 5.99937 42.2538
1 4.46101 3.93758 45.9971
1 39.5717 25.3597 2.73147
1 23.6286 11.1637 21.6801
1 31.8014 24.1319 21.5447
1 20.2731 20.8164 41.2505
1 7.11623 5.10484 26.9062
1 38.0649 38.7743 9.01695
1 22.5833 36.0743 7.30914
1 44.7076 16.08 31.3309
1 46.7146 10.973 39.2163
1 37.7812 18.5116 9.78208
1 38.5844 45.4999 26.0333
1 25.0776 36.082 49.6796
1 33.6131 29.8328 34.8176
1 18.9934 43.5408 45.3408
1 40.1143 21.8036 8.79814
1 37.5535 40.0433 6.19934
1 34.8711 4.62077 41.191
1 46.777 41.0128 38.7941
1 28.5463 18.4706 20.8751
1 13.2894 4.59578 27.3539
1 41.8898 33.412 38.593
1 3.40671 6.64806 39.4615
1 6.29902 44.9551 21.378
1 36.9176 45.1753 7.01181
1 9.67024 7.81429 28.4969
1 25.6079 35.3473 30.3776
1 35.8086 26.3308 4.61791
1 2.41621 10.0226 32.8422
1 2.17892 14.6894 27.0273
1 6.81737 40.9409 26.5659
1 39.7994 16.9624 30.7945
1 29.1556 49.6419 26.6567
1 5.75378 24.5888 44.7457
1 4.5216 27.1406 11.122
1 10.6191 45.6841 22.3524
1 6.50525 48.0653 22.5549
1 37.5119 1.90264 11.7641
1 4.10506 8.73355 3.20447
1 1.05904 29.1794 5.28011
1 7.82284 1.69797 41.489
1 36.6491 43.9848 2.49148
1 48.8495 16.5575 1.43604
1 38.1081 21.949 44.5154
1 33.5927 24.5765 28.2417
1 35.7817 31.603 21.4872
1 5.13978 30.393 49.3598
1 42.8355 34.0589 15.7901
1 25.3729 45.5911 44.0481
1 1.52266 0.801156 22.7068
1 30.8275 18.0481 36.0999
1 43.1253 6.3889 24.3697
1 25.5804 11.2632 45.9387
1 17.9641 48.3429 30.1168
1 11.9258 22.7673 24.2981
1 4.52978 3.92291 27.1858
1 30.9652 34.1803 19.1411
1 9.30035 4.25967 37.3396
1 8.2826 33.1164 3.70152
1 47.7058 4.19996 1.64885
1 45.4967 49.1275 36.0513
1 40.3348 39.7052 48.5982
1 39.5443 10.8703 2.29943
1 11.4876 19.2261 44.6416
1 49.7318 34.3987 28.8244
1 12.3061 19.4088 11.1225
1 24.7067 46.6892 5.09121
1 4.74285 39.1344 40.7092
1 13.6852 47.3962 39.1663
1 24.1875 12.4202 6.24922
1 16.1242 5.44443 37.8985
1 4.48335 22.662 13.2691
1 1.72932 8.46165 1.7023
1 25.2495 25.4305 1.60759
1 32.8517 32.2927 38.8597
1 36.262 29.6928 15.153
1 10.3694 45.5339 17.6506
1 46.5885 13.5591 24.007
1 0.755353 45.3286 24.3525
1 13.6666 35.0362 23.7936
1 47.491 12.4301 13.2223
1 38.6879 22.3491 16.5453
1 24.5713 24.4199 20.6709
1 14.653 21.04 7.66984
1 7.16383 48.1108 47.1208
1 14.2141 47.3847 4.13484
1 43.3864 0.649585 15.1548
1 12.9753 30.3478 22.554
1 33.2058 2.9312 24.4046
1 12.0789 49.4665 46.1139
1 45.4263 36.7758 32.3967
1 10.3731 22.3893 39.3824
1 29.6898 35.3078 36.9253
1 3.53788 14.4611 14.2401
1 43.3501 2.07052 0.0172298
1 12.6424 36.357 44.4407
1 12.4891 37.6667 10.556
1 32.0016 8.52077 9.22502
1 49.0711 9.45743 39.4366
1 6.41739 48.7431 28.3667
1 19.8722 32.6916 30.5243
1 2.89688 46.8155 47.5173
1 30.6539 8.49998 6.73421
1 18.7312 42.1118 42.6301
1 35.9233 5.80836 28.751
1 9.34807 43.3345 32.6657
1 47.7842 4.30905 23.0339
1 30.5618 27.5051 6.53804
1 5.21776 15.8589 43.9337
1 46.2179 24.7606 4.83681
1 27.4698 48.7786 13.1602
1 48.2584 46.4813 32.4301
1 20.8219 11.3444 31.5804
1 14.0809 19.8396 0.101995
1 8.47259 10.1074 12.1906
1 42.0848 46.6304 47.9848
1 47.2595 45.8944 43.814
1 25.4775 20.9847 6.82743
1 4.60034 39.8004 30.5072
1 47.856 45.2527 18.8615
1 16.7891 27.8922 46.3176
1 49.5535 41.0926 47.6514
1 3.5905 19.7357 14.6147
1 44.7695 24.0295 42.3875
1 9.89005 2.80154 25.6517
1 0.113068 1.447 16.3215
1 41.52 5.96002 5.84203
1 26.599 34.487 39.2396
1 8.77668 9.67658 25.1249
1 46.3353 18.1165 4.20707
1 17.1175 41.2333 48.0922
1 38.9474 20.5386 6.04707
1 9.71388 2.52568 45.3286
1 9.81116 21.958 19.1881
1 27.8448 9.80286 47.5796
1 35.8706 26.9731 40.2879
1 43.4974 11.536 25.9581
1 7.44054 37.6795 37.4917
1 40.7678 11.5477 25.1419
1 1.93171 7.0317 33.3714
1 19.5602 48.3077 20.1759
1 36.1661 47.0194 22.8801
1 13.5654 18.2011 20.8812
1 4.3439 13.9751 36.1996
1 41.504 11.4965 7.81541
1 9.97794 31.2995 30.5863
1 29.9372 40.5666 38.3835
1 26.3483 40.7229 26.8008
1 12.753 46.9969 8.18905
1 32.967 5.83132 34.1856
1 49.4511 43.5297 38.8107
1 30.1311 3.23391 30.5817
1 26.4484 36.7983 44.9187
1 7.77379 11.8702 3.60333
1 16.3944 9.54057 39.03
1 6.65512 46.296 5.65253
1 34.2256 33.9564 33.0829
1 16.5165 13.783 35.358
1 27.6874 42.184 22.1218
1 27.5693 34.1186 33.7018
1 12.6362 44.517 21.8599
1 22.4603 7.43316 8.69087
1 18.6019 18.4964 48.226
1 48.436 42.4375 18.3267
1 39.6447 31.0937 15.8023
1 8.56058 23.5046 26.7619
1 45.2059 30.405 1.89214
1 49.0231 20.9284 44.7642
1 2.32106 11.8264 13.0347
1 32.8866 44.9425 35.655
1 23.559 44.4878 14.2442
1 27.4235 36.7115 37.1937
1 40.6551 40.6401 22.1331
1 23.9602 37.5754 2.95463
1 31.7521 10.0217 41.0127
1 26.8873 36.0231 9.05337
1 8.22767 12.2594 35.343
1 8.71551 43.0664 48.2219
1 4.54892 18.3092 4.73079
1 8.42756 33.1976 14.6403
1 1.1115 26.6776 10.5589
1 10.71 1.29581 16.3242
1 43.6781 45.1184 20.8163
1 48.5699 7.65807 8.8996
1 46.2623 32.3708 18.9174
1 14.0409 28.8534 36.1115
1 21.598 21.2681 49.357
1 24.3009 4.42045 11.3456
1 15.9809 24.5514 5.13636
1 3.34062 42.8375 5.90219
1 5.18967 37.9118 13.1332
1 25.872 24.6911 6.00007
1 48.122 21.1588 18.3937
1 36.2352 23.8137 32.8093
1 21.3795 39.7763 45.9288
1 17.6065 16.8053 46.1484
1 4.49733 11.1351 16.9952
1 35.9585 7.97621 36.6309
1 20.7312 2.09427 14.1617
1 48.7256 13.1763 19.772
1 39.1559 34.6591 14.2231
1 23.6564 26.1404 32.0504
1 40.6312 23.4519 10.8896
1 39.4873 9.62494 17.5102
1 33.7583 19.1094 46.4289
1 1.52106 17.0711 28.3621
1 46.8252 47.0574 15.6007
1 8.78712 28.6295 41.9429
1 5.17706 32.1347 6.0286
1 13.9772 13.1111 8.76729
1 31.6995 14.3141 18.9365
1 13.2594 21.027 34.2276
1 19.5273 44.0211 31.9475
1 45.7219 35.075 20.7793
1 45.9498 8.59708 22.1168
1 30.116 34.2747 39.2269
1 5.37368 1.78345 38.6277
1 37.2514 30.0487 47.8903
1 3.07089 25.1717 38.106
1 20.2127 45.6277 49.0377
1 24.2626 48.7793 24.2947
1 43.5562 3.42481 41.679
1 33.8361 36.9383 29.6974
1 5.00438 19.8947 36.0235
1 28.1336 21.6299 17.5397
1 38.0308 27.8512 35.8228
1 36.2567 29.6089 2.33326
1 16.8773 23.9886 16.1752
1 28.8339 28.788 35.6658
1 30.6656 13.1929 49.0113
1 16.8304 2.14114 25.7512
1 32.2213 29.8558 17.693
1 0.816899 10.6304 5.49882
1 3.15249 47.0161 10.9575
1 5.31064 28.942 18.7024
1 26.1754 49.528 35.7432
1 7.59392 7.47624 9.37059
1 28.7895 31.8363 39.4273
1 23.9914 6.4577 2.98684
1 33.5143 48.0782 2.26765
1 19.8617 15.1172 3.43949
1 28.1027 6.06593 15.6503
1 12.3605 21.6523 6.12045
1 9.83116 4.39943 19.1694
1 35.0723 6.99031 26.3825
1 44.6972 10.0191 12.3664
1 23.8352 33.7859 11.7438
1 42.7634 14.6572 17.1259
1 20.3654 24.4296 2.57098
1 39.9371 20.2767 17.8852
1 27.897 11.4632 27.8271
1 18.5128 4.717 38.4743
1 48.6451 33.2695 19.459
1 26.4156 44.6252 2.72382
1 9.33515 41.0226 45.3481
1 9.91324 32.4971 19.8152
1 39.9596 27.7688 5.52893
1 6.82338 34.4145 0.422548
1 48.339 6.94263 26.2645
1 7.26421 38.6406 10.2645
1 31.3387 25.4644 42.437
1 39.6678 40.5301 12.8992
1 14.9388 32.0912 0.640653
1 10.1227 27.7103 5.19269
1 21.5852 22.1722 19.755
1 35.9941 7.83399 9.56846
1 10.4903 3.63634 21.8708
1 41.3439 22.9166 2.22773
1 2.49655 24.5324 11.4521
1 48.2971 27.3789 1.37261
1 26.0188 47.1573 29.5554
1 39.9099 17.6475 43.28
1 33.3673 40.4775 47.6161
1 49.9449 20.9629 26.3609
1 10.9663 48.9509 7.00395
1 30.0699 27.9898 18.1565
1 40.5547 36.9982 36.7546
1 49.3358 20.6058 37.019
1 8.48528 43.6393 44.457
1 17.2407 21.9418 22.0846
1 8.31511 3.61755 14.7327
1 15.4846 9.51289 32.5453
1 38.7402 3.75926 12.983
1 32.9597 15.8319 6.31309
1 11.5748 4.98765 9.99771
1 4.68104 5.10237 4.45783
1 0.979454 13.1832 39.2897
1 5.75103 4.81224 34.9166
1 4.51514 11.419 1.64819
1 23.1322 38.1838 18.8076
1 36.5855 19.4157 49.305
1 16.7363 36.1327 4.9593
1 37.9647 27.5716 3.72859
1 43.2852 12.9967 45.1293
1 33.6514 19.3877 2.73619
1 29.332 34.8862 5.0852
1 1.77805 27.4098 48.8758
1 48.439 13.9401 44.412
1 46.3958 37.5256 28.4375
1 26.2875 19.6977 3.72091
1 25.8985 31.8211 11.9228
1 8.86011 46.8362 7.23137
1 9.81355 35.8396 34.8141
1 3.56886 33.1263 31.2325
1 18.1146 36.5823 10.4119
1 27.2087 11.0056 32.2529
1 24.3069 15.5531 32.148
1 12.032 8.98446 48.4555
1 13.9147 32.3955 44.386
1 1.25926 36.0489 39.7991
1 6.51365 0.864964 25.6963
1 40.7542 16.3718 45.6909
1 3.47556 6.73809 27.1819
1 43.8572 24.1069 22.5782
1 8.48651 0.578084 44.0402
1 10.6386 33.8998 1.50403
1 24.1627 34.0386 21.4856
1 10.0849 11.8374 42.6539
1 32.0922 38.5069 48.0513
1 4.7766 40.7098 7.47492
1 11.1654 20.4761 25.609
1 0.730466 42.3884 10.5415
1 43.6746 25.7226 1.82725
1 44.1196 27.0183 22.9135
1 0.250404 45.4141 30.6584
1 48.6866 29.2876 27.2079
1 42.1317 38.0116 30.646
1 40.8491 9.04638 33.8377
1 33.7713 36.5433 43.5494
1 7.08906 21.9924 2.67352
1 37.6728 39.6467 30.4167
1 38.661 38.6009 40.83
1 5.97156 43.8248 4.9506
1 8.04627 0.733527 17.8161
1 30.1693 27.4493 -0.00210578
1 5.09891 3.59071 2.21075
1 12.353 40.89 11.8899
1 6.21182 46.0243 38.838
1 4.54982 7.26406 44.3933
1 47.1548 9.28423 11.1819
1 49.4317 9.31733 2.95982
1 13.0851 4.85615 2.52723
1 22.2353 30.7295 27.2746
1 21.8484 14.9211 44.1618
1 42.8885 40.1271 49.4573
1 12.2584 5.9505 38.7855
1 5.67261 27.1016 25.937
1 36.0252 36.3534 3.87152
1 48.1386 26.6984 46.377
1 19.4739 26.5474 38.1562
1 17.417 4.32047 44.7418
1 6.55442 29.4292 37.1891
1 3.32713 23.275 8.32295
1 1.69304 23.2179 2.3407
1 48.5198 23.796 17.4724
1 26.2399 22.8571 15.6366
1 37.6007 10.8962 39.3581
1 3.99312 35.9311 30.9921
1 14.7357 25.6328 19.9324
1 15.9536 7.04186 21.9192
1 41.3289 28.9644 33.9995
1 49.1894 33.8183 8.37259
1 8.39485 47.5683 17.7063
1 39.2555 20.3482 21.6684
1 36.6019 5.22448 13.3381
1 20.4013 36.6912 17.4611
1 33.0997 27.7492 45.9216
1 2.39593 28.0003 43.7463
1 47.6227 31.6965 9.87033
1 17.4514 27.8715 14.4214
1 32.0838 28.5634 40.8792
1 -0.302684 33.2973 13.3259
1 34.9355 15.1545 35.078
1 0.802241 13.453 6.25027
1 0.640306 23.9625 7.34909
1 48.2188 39.9115 16.2871
1 45.2515 21.5825 43.5733
1 18.0225 0.708659 48.9715
1 8.78249 26.4311 11.3182
1 12.9693 2.27757 11.7503
1 22.9927 31.1387 16.891
1 49.8198 46.9852 34.8936
1 33.9858 40.2245 11.7373
1 5.19478 36.8844 41.6418
1 4.16996 10.5203 23.6702
1 44.5149 42.9979 22.6124
1 21.0109 42.7687 28.0927
1 25.632 27.173 28.2877
1 28.3074 33.0211 43.8119
1 42.8892 0.62512 19.298
1 13.8101 46.9093 13.0931
1 49.1858 30.3565 30.0349
1 1.04464 25.0265 20
1 5.92425 20.9665 24.3963
1 42.7308 36.8969 10.6265
1 7.46213 46.2254 28.6487
1 29.4498 12.7212 31.6276
1 5.95436 33.4653 26.5574
1 1.3565 23.8421 45.4043
1 0.0982078 16.9222 39.6086
1 24.1096 33.7304 47.6421
1 43.9286 45.1796 35.9277
1 17.7645 48.2071 41.9316
1 14.7149 10.3576 1.34491
1 40.3132 7.47244 41.2188
1 27.9141 39.4237 42.3008
1 34.7171 11.7572 10.1421
1 7.838 35.5535 5.76106
1 46.9547 44.2391 33.3237
1 0.351293 10.7373 9.08455
1 14.5298 36.6718 48.073
1 10.7995 8.99851 13.7018
1 6.82226 31.3539 10.383
1 43.8559 22.4043 20.1948
1 21.4698 10.6112 20.0032
1 10.9655 20.2821 35.6075
1 46.8681 22.4423 45.6347
1 36.3946 47.6338 8.41699
1 6.05508 2.03762 47.5438
1 10.763 38.6154 23.7267
1 28.2334 38.0872 15.6974
1 4.15472 22.706 21.3976
1 13.1415 5.97205 43.7465
1 13.0551 16.6793 14.5033
1 29.0951 38.4203 12.3865
1 26.2642 26.6413 9.59698
1 37.8291 24.6636 30.5012
1 43.915 45.5486 1.72482
1 15.2395 43.579 49.1585
1 24.1755 35.9332 46.1482
1 6.53265 14.903 38.2645
1 12.7699 40.6306 27.2391
1 8.89555 4.37138 3.77949
1 22.3989 24.7866 17.3825
1 44.2064 35.2046 42.7422
1 15.479 45.0179 42.7666
1 22.1718 40.3945 49.3862
1 26.2693 49.2215 20.0269
1 13.6778 35.1168 19.0982
1 13.6289 40.9439 1.88537
1 16.0057 33.5652 27.4212
1 10.5566 45.5533 14.1284
1 46.2677 46.6255 12.6708
1 6.92776 10.1706 5.31019
1 21.5248 25.3536 44.5621
1 22.7345 35.3173 28.5044
1 8.60277 23.0953 49.0293
1 5.2797 15.8136 20.0928
1 4.34889 7.99031 47.0052
1 1.39556 31.9229 4.70788
1 4.53447 18.1129 11.9584
1 11.4412 13.3945 26.4108
1 37.4294 38.428 15.0943
1 7.33386 27.5082 32.8316
1 10.3925 13.3893 46.7323
1 10.5044 47.3528 20.0274
1 48.6236 42.2463 5.1182
1 32.787 27.7687 49.5829
1 2.60506 26.4221 33.2388
1 31.0671 42.783 19.6042
1 9.48639 9.50988 49.7748
1 18.9632 37.5432 48.2657
1 15.3267 43.4031 8.09942
1 23.7099 3.36458 7.03336
1 30.916 43.5647 24.0432
1 43.2142 36.2283 3.12018
1 17.2839 39.6902 30.1085
1 5.9303 4.92662 18.9853
1 8.81331 23.8645 3.73919
1 38.6851 39.3536 38.1129
1 42.0877 6.96535 43.2807
1 37.3499 10.8667 31.7653
1 18.6859 38.6151 25.8429
1 21.9867 45.5678 21.2898
1 8.68092 23.34 15.2252
1 11.1548 37.0011 27.8324
1 21.2422 21.2667 37.3397
1 48.8238 0.752972 30.8115
1 37.7986 7.55041 13.4884
1 36.2037 43.0028 33.4134
1 39.219 14.2903 36.7459
1 44.4254 38.5212 23.5296
1 20.0357 17.5783 35.8956
1 35.6116 25.3808 37.6372
1 11.5599 42.3588 38.0332
1 29.1168 9.34726 2.58211
1 42.368 31.876 14.5064
1 42.294 28.8287 23.18
1 36.1564 28.1551 45.9911
1 33.7412 46.5535 22.0271
1 41.0916 2.45439 35.4671
1 31.336 5.22937 38.0656
1 17.0483 30.1957 13.5521
1 19.018 18.1462 23.7156
1 11.9328 28.5654 26.9068
1 46.4246 36.5431 2.66729
1 16.4012 40.2581 25.5105
1 44.8738 21.7362 27.3018
1 17.8115 29.0128 24.3085
1 30.027 21.2957 23.9532
1 36.6555 45.7405 14.5414
1 18.0897 25.0637 29.8948
1 9.8084 16.9614 43.8676
1 30.6867 41.6344 0.158117
1 30.8254 13.1878 8.41441
1 46.1299 31.9195 23.6827
1 41.1945 26.9546 48.3433
1 33.5036 39.2979 17.9584
1 23.7392 15.8745 22.5835
1 41.3366 14.4406 20.9098
1 10.7156 17.1442 23.8158
1 6.06361 42.5348 18.1429
1 23.5779 42.9595 41.0081
1 23.9778 9.17304 23.7905
1 44.4927 43.765 38.6794
1 25.4851 28.1461 32.9892
1 40.8599 28.9633 37.9096
1 48.6859 5.5361 11.7782
1 26.3694 30.9375 22.9338
1 28.9918 40.9631 44.8573
1 32.4418 4.83406 2.18262
1 4.54141 0.660845 48.9413
1 38.5749 26.6103 7.98776
1 4.70572 35.4389 28.0647
1 11.4142 38.4924 43.0741
1 22.222 48.8016 46.3442
1 19.1844 34.8202 7.21349
1 46.2311 36.5212 6.23046
1 7.71675 2.47392 2.71328
1 26.741 22.2138 37.9845
1 3.86364 21.7133 3.57137
1 14.4576 36.2978 0.778028
1 47.17 29.1894 13.2138
1 2.36637 22.7294 19.5259
1 48.9884 28.5373 18.5751
1 0.0230842 40.2147 6.74517
1 28.466 14.1193 36.4304
1 34.3692 8.56865 44.8732
1 33.1074 19.7185 18.656
1 39.3151 25.6528 10.5395
1 5.24056 20.1412 44.2871
1 1.83932 16.4032 3.89108
1 42.5933 41.4394 1.96075
1 35.1356 25.2677 24.2391
1 0.844947 20.6519 19.917
1 22.5979 8.5512 3.95971
1 33.1179 0.16654 37.2628
1 33.9187 22.5226 24.5214
1 47.3338 37.7052 36.2831
1 30.0208 7.96044 31.0175
1 45.2264 11.813 47.4712
1 19.4453 9.64427 16.5473
1 8.46266 29.9792 46.1111
1 23.639 32.4278 0.712135
1 40.9726 37.6339 3.10087
1 19.2987 3.43814 22.335
1 4.44944 32.7231 24.2329
1 23.586 16.6342 16.0464
1 15.761 34.2679 1.82883
1 20.6901 34.6481 32.9242
1 21.7802 31.2953 48.4984
1 3.15632 28.9053 20.1519
1 23.3443 40.4194 23.1453
1 14.6786 19.6594 15.8997
1 7.03406 30.969 4.89013
1 16.5986 17.6463 36.3682
1 38.3979 5.31011 21.788
1 1.47248 10.9191 44.9841
1 38.3949 5.48643 24.4619
1 15.8939 26.8803 24.0038
1 8.29709 17.7078 34.3689
1 40.9293 35.7102 39.0558
1 2.65775 28.7366 12.407
1 34.667 43.9956 5.71428
1 6.09451 40.9675 11.6345
1 48.4268 48.8825 44.4921
1 35.5129 33.5571 18.6365
1 18.7836 49.1643 3.0629
1 18.3594 12.5383 0.929923
1 5.28066 30.6211 8.28416
1 44.927 39.9864 13.6571
1 44.9686 2.60502 47.3154
1 5.71144 45.1051 34.2127
1 35.7564 48.5175 48.1929
1 17.9866 7.66062 13.6532
1 1.53184 19.7838 48.2328
1 34.5721 37.5981 38.1786
1 21.9018 34.5121 18.724
1 30.8167 44.8919 28.4472
1 48.0733 26.3908 21.874
1 43.9312 19.4979 46.5078
1 44.3023 39.9284 5.20506
1 44.4958 20.3706 4.07685
1 30.5256 3.88252 25.0436
1 34.6328 44.2661 26.0492
1 27.8921 28.384 8.07332
1 10.1954 0.749151 30.1009
1 25.1146 31.9613 7.60709
1 13.9924 42.7595 28.279
1 41.1603 8.95195 21.0195
1 35.5596 14.2285 24.6864
1 4.66411 42.5714 20.3643
1 9.48574 0.666258 22.7708
1 15.7294 43.1205 25.2553
1 15.7948 32.1895 22.335
1 2.79791 47.2671 36.0055
1 8.20968 32.6008 38.63
1 2.18878 42.6587 29.2028
1 19.1442 14.8684 31.4203
1 0.355212 4.51039 2.77598
1 1.68398 3.50125 10.3823
1 18.5001 34.3527 2.12922
1 2.58653 14.551 20.8477
1 21.3271 14.7563 22.4962
1 48.3463 10.0595 7.13351
1 27.1479 0.823626 17.9869
1 5.33538 25.761 29.7594
1 17.7814 40.5188 0.832093
1 45.3382 38.6606 45.2855
1 20.625 7.69476 35.2115
1 36.6762 31.7823 9.76063
1 42.5522 32.9979 34.3337
1 41.6488 27.3014 43.9874
1 40.4956 43.2045 2.28141
1 11.9504 4.9676 30.0856
1 4.19066 36.6474 16.0207
1 48.6652 33.6691 45.1072
1 25.3192 25.7405 42.5621
1 34.9059 17.6209 7.49899
1 3.17249 2.33406 44.7085
1 17.8118 6.75198 27.403
1 36.2797 38.7623 34.2338
1 26.7487 24.3154 10.6004
1 8.01899 40.1151 42.9252
1 19.9381 12.6276 4.57611
1 30.6044 17.6826 2.18003
1 8.9459 31.1929 27.9373
1 37.3815 43.7342 42.7306
1 12.5667 9.36446 2.69673
1 33.938 31.7802 10.4643
1 41.2548 45.2932 6.14475
1 7.15775 21.2096 31.5972
1 31.2748 0.886932 16.5227
1 26.9029 45.5209 41.7974