4096
 Atoms. Timestep: 6840
1 48.1081 33.4417 9.0233
1 2.27042 15.5083 32.1811
1 20.4129 8.7663 21.5175
1 37.1071 29.2037 18.3169
1 10.2007 9.0783 0.642137
1 38.3928 3.4637 24.8481
1 18.3413 21.5426 9.88598
1 5.32467 39.0523 29.4376
1 1.21211 44.3733 39.3808
1 19.4966 12.6216 2.01816
1 4.87398 3.84319 31.3054
1 26.7313 27.8279 14.9335
1 37.5427 23.1548 26.5899
1 2.31391 38.1756 38.8679
1 28.0078 2.82481 0.671118
1 49.5952 37.3682 47.9753
1 5.79425 10.7349 43.1459
1 3.12036 19.8892 7.63309
1 33.5302 19.2747 5.17627
1 26.7039 42.3409 27.9749
1 17.5641 28.0877 24.7051
1 29.5792 5.54562 22.5977
1 9.94076 1.59085 17.7981
1 29.667 41.7869 22.3309
1 34.3556 17.2389 9.27298
1 3.43169 18.5767 20.4597
1 16.076 31.937 12.0139
1 36.0434 23.145 15.8174
1 46.0474 15.0406 21.6639
1 33.5844 2.29555 24.841
1 11.2482 0.837555 48.7638
1 22.2405 5.63686 19.9548
1 38.0626 31.1819 10.0784
1 4.68028 16.3472 25.8092
1 24.2717 38.5915 26.6342
1 23.7981 28.4556 48.0067
1 23.0477 24.5308 1.47115
1 35.1761 45.6294 32.7475
1 20.5998 46.6244 44.4134
1 33.6847 30.9435 12.8336
1 2.80084 7.14669 32.7376
1 45.1477 48.5907 4.05848
1 4.40011 17.0206 10.5638
1 38.3229 40.1224 8.16586
1 13.6776 14.3516 13.6901
1 39.3072 7.85587 7.51758
1 18.3373 16.875 47.1289
1 2.90033 4.88559 21.8577
1 24.605 24.273 23.8435
1 5.01448 17.1744 36.0083
1 43.7856 8.36145 8.937
1 23.3588 43.5226 36.2272
1 36.126 19.0291 1.03641
1 23.1311 21.9723 22.9354
1 25.4547 26.363 36.2922
1 25.8458 43.6023 4.792
1 37.9204 17.2841 8.07992
1 7.45972 8.63781 31.6562
1 16.312 30.4447 6.61788
1 41.1565 0.707618 30.3562
1 18.5164 42.3575 21.051
1 0.0680323 8.61053 48.8839
1 7.43871 44.0625 44.3461
1 9.23564 46.2243 29.3932
1 22.3176 40.7779 3.22088
1 17.5144 32.3368 49.5915
1 3.8906 7.90741 3.83068
1 7.4323 30.2892 35.728
1 30.5957 38.5147 48.9233
1 22.4171 4.96295 44.1421
1 24.145 19.5316 33.024
1 40.9317 23.2946 11.057
1 44.8535 4.25245 47.1524
1 25.2917 0.521197 37.6693
1 15.7831 36.1175 15.9655
1 43.8193 9.00439 12.0908
1 11.117 19.4376 17.3113
1 12.8684 46.2742 27.8211
1 19.9655 10.1565 2.7546
1 17.1581 19.0157 19.9825
1 29.3949 19.7483 35.3328
1 10.2521 14.8349 17.3615
1 6.69734 33.1285 30.0654
1 37.2027 18.5986 10.575
1 15.5756 27.5173 9.70738
1 34.6012 24.001 11.5005
1 31.6165 18.7421 10.3347
1 45.289 14.7439 6.9481
1 38.9808 25.9177 4.09939
1 12.8146 37.9508 17.3084
1 5.53075 10.0085 36.7382
1 11.2086 43.6551 7.31815
1 17.4582 24.2872 13.7337
1 20.2775 35.8766 15.7335
1 18.5382 43.0463 47.8419
1 16.5515 8.49433 9.83146
1 46.602 4.11794 29.606
1 8.60861 6.26605 31.1623
1 30.5141 10.3185 38.8932
1 27.957 42.0007 34.275
1 28.0246 22.7258 4.35914
1 38.3782 12.6144 30.2573
1 13.2086 17.3495 44.5224
1 48.1674 1.51003 45.9165
1 30.61 41.4017 38.5399
1 19.9587 26.6807 9.81452
1 45.803 12.0429 14.0327
1 49.3726 34.6614 34.9857
1 35.7346 40.0847 38.972
1 44.206 18.8693 23.1863
1 0.134134 41.6657 3.55913
1 38.5225 29.044 8.70426
1 38.61 46.665 1.91317
1 33.3393 0.433593 13.0935
1 10.106 26.3298 25.3217
1 1.85383 34.8983 6.81506
1 2.38995 38.2049 23.7841
1 38.1074 21.6818 7.14832
1 22.7147 44.0194 26.2758
1 6.20634 11.1972 28.2471
1 20.598 42.9013 24.8113
1 46.9997 49.011 35.4533
1 41.191 24.1934 2.59613
1 23.2581 25.8911 15.3421
1 39.2498 30.1661 5.91528
1 26.5613 37.4363 33.5166
1 48.8225 36.4547 29.3071
1 9.34507 5.03977 39.2863
1 3.70835 18.2423 47.494
1 21.1521 35.0353 7.24886
1 37.2812 13.1097 49.5182
1 30.6845 47.8089 35.7393
1 12.395 30.5992 0.183724
1 15.8755 14.9353 8.24729
1 26.626 35.4076 48.8138
1 12.1095 39.692 26.6312
1 10.9142 34.5863 41.2066
1 31.6947 20.6883 39.0966
1 6.0562 34.7507 17.742
1 35.3906 38.7584 44.5952
1 19.7907 27.5055 0.749535
1 39.7868 7.19195 25.1857
1 47.8966 7.17273 26.3486
1 34.8872 30.477 49.4396
1 33.535 18.5327 1.03211
1 5.3947 8.96982 29.9675
1 25.1982 0.754701 17.8534
1 24.3944 37.1351 48.7292
1 11.9627 22.639 30.5877
1 19.6176 4.08104 49.7016
1 2.43154 45.62 12.8645
1 10.4714 32.5038 1.01971
1 14.4394 29.6151 8.28672
1 43.2687 33.8392 49.5229
1 0.912827 32.2 22.313
1 11.1034 49.4931 41.9271
1 27.0143 9.04655 42.5741
1 19.3039 33.6438 8.81792
1 20.0103 49.3163 20.9021
1 18.3342 23.015 32.5325
1 36.6174 0.838471 15.674
1 3.17072 47.5607 17.0287
1 27.2731 46.0982 22.471
1 19.7428 1.30643 48.5119
1 20.0659 9.04822 49.6133
1 23.9382 6.09114 33.2692
1 26.5565 0.414938 15.4702
1 46.3474 12.0042 46.014
1 2.85623 0.978298 6.42797
1 25.4058 44.7353 23.7501
1 24.5228 38.5732 22.4752
1 32.0934 13.3701 8.01503
1 4.53611 13.2883 14.6142
1 38.8808 15.5948 49.6748
1 38.9096 21.0223 9.82367
1 13.339 34.2999 19.6331
1 9.55636 43.5894 46.1114
1 0.599615 32.9253 39.023
1 24.3925 35.5807 28.923
1 7.51293 4.94477 15.7081
1 26.1452 5.66652 25.389
1 44.9357 6.77447 32.1736
1 1.25089 2.69295 11.0993
1 43.5134 22.9165 17.6149
1 0.978359 47.5733 37.4177
1 28.3882 24.5322 19.7608
1 6.04134 41.1975 2.11128
1 30.0571 25.5419 1.54456
1 24.2787 41.1606 44.5576
1 14.5648 9.29914 47.2318
1 9.06381 2.0923 24.0108
1 20.7744 15.8169 27.7518
1 0.831074 1.22241 30.132
1 32.81 43.7337 38.5991
1 9.94756 38.2309 46.5119
1 46.0006 3.95296 32.2371
1 8.80335 21.981 14.4148
1 0.139736 8.4881 25.5161
1 14.6224 18.4262 6.37698
1 8.13152 37.3184 5.79484
1 45.0952 24.9441 10.5497
1 44.1992 21.7678 26.7759
1 7.74722 43.3036 26.4276
1 47.9076 32.1588 34.7559
1 41.7436 26.907 23.6711
1 1.09603 37.3305 25.9723
1 8.04965 31.4278 16.0505
1 37.5641 43.5904 48.301
1 9.67943 49.1737 19.4848
1 15.6274 28.054 47.965
1 47.3971 24.4082 43.1268
1 22.3746 47.8097 45.9488
1 49.4485 20.1995 9.13778
1 49.2347 44.3887 17.5498
1 21.1139 43.187 34.748
1 18.2849 44.0629 40.2575
1 41.453 20.2484 0.471263
1 8.85152 3.21863 46.9362
1 26.7978 20.6383 2.7193
1 22.4675 31.032 34.3218
1 45.7782 20.2026 8.57411
1 25.6827 21.0797 0.358102
1 31.6584 31.1333 17.2366
1 48.1691 7.05159 29.6852
1 45.1887 2.23386 42.5575
1 22.9228 16.6258 26.0811
1 44.5124 0.377081 15.3645
1 32.0204 29.3276 15.1911
1 19.3691 12.662 36.5756
1 24.0194 22.1292 10.4082
1 31.7501 9.60261 22.3526
1 23.348 16.5237 42.8782
1 4.34461 37.4041 36.507
1 11.6859 39.0701 23.9802
1 15.8341 25.8068 30.5416
1 13.3849 36.5731 36.5483
1 28.0429 21.3727 17.394
1 7.96583 47.9032 47.5794
1 47.0932 36.3729 46.4588
1 15.4646 24.1137 12.1954
1 7.25357 7.3101 26.1434
1 15.8775 40.3331 30.0177
1 22.6205 46.5118 15.7626
1 2.93689 34.6504 31.4353
1 43.8342 43.9743 44.4025
1 21.4807 34.3553 21.0877
1 36.7898 12.1807 34.6522
1 27.4166 15.778 35.5979
1 33.5658 14.5195 22.188
1 47.0198 39.414 5.2864
1 20.443 44.5289 20.0725
1 33.7168 13.2417 3.78769
1 15.9021 28.4532 27.1021
1 29.1886 18.5231 41.2188
1 45.8537 37.9631 15.3532
1 39.0147 28.6045 40.1803
1 23.3153 22.1823 5.78507
1 48.6749 45.2973 43.2801
1 44.5225 1.81519 38.2879
1 19.3648 25.225 7.73013
1 44.8863 8.86851 16.8807
1 20.185 45.6247 12.388
1 29.3499 46.939 24.1634
1 36.9609 48.8597 7.51772
1 32.4389 10.8727 4.31334
1 29.6134 23.6111 8.65374
1 47.0307 17.4747 48.3959
1 9.51773 44.8526 18.858
1 29.6536 40.9876 44.4921
1 33.4095 29.0533 31.993
1 42.9314 14.7878 33.4575
1 5.59228 20.4573 31.6784
1 5.70016 22.9947 8.51408
1 2.04915 9.56399 43.4441
1 4.86045 22.0611 10.8407
1 18.8208 17.6639 13.1152
1 7.01205 49.6038 3.88117
1 3.66756 31.2959 10.8085
1 32.8088 30.1641 26.4466
1 41.1597 25.9259 29.058
1 9.05366 13.8287 39.7781
1 14.2343 2.61737 13.9223
1 44.1891 10.3354 36.7686
1 29.2667 45.0885 14.3657
1 38.9089 42.4188 29.7455
1 13.0574 42.2068 25.878
1 8.18254 16.7566 42.7358
1 45.4146 46.3607 14.2953
1 12.1141 17.9554 27.087
1 20.6414 47.4693 14.4652
1 44.0192 7.58487 21.3386
1 21.8216 0.194015 7.52739
1 28.0112 36.7677 1.20912
1 15.3425 12.842 30.3433
1 18.7848 27.0599 39.1616
1 11.2376 23.1403 46.5931
1 47.8071 15.7185 44.9034
1 24.1882 23.7808 30.4371
1 44.2032 33.5179 30.0938
1 14.8847 20.6075 19.2563
1 35.8588 32.6569 36.5451
1 22.0956 40.2338 16.6717
1 5.76133 47.8965 0.694524
1 6.21767 11.4093 18.5839
1 2.3129 5.98933 14.3484
1 45.0052 22.8544 31.4174
1 25.9638 36.4895 6.73136
1 4.38849 44.9594 17.2472
1 41.3242 2.24528 7.36517
1 32.9705 41.1861 5.26686
1 41.2998 19.6815 36.6157
1 13.4675 41.9268 47.2013
1 1.40335 27.973 4.86246
1 19.2174 16.3963 4.23681
1 18.2636 31.6559 19.2972
1 7.97921 37.5477 41.7757
1 33.4616 1.49382 40.6622
1 32.9658 33.944 42.0791
1 30.1412 2.83133 31.7004
1 45.6911 4.70145 18
1 32.4495 40.9351 42.1163
1 40.074 49.1688 34.1027
1 45.3859 15.3069 43.1976
1 9.47949 18.7005 47.2799
1 30.3235 10.9758 47.1446
1 22.7068 20.9153 35.1569
1 10.8151 5.02906 7.60501
1 4.66397 28.4082 43.5125
1 32.9149 44.0202 35.9289
1 15.5016 18.1512 24.4548
1 37.2104 16.6561 18.2432
1 26.024 4.98351 9.88794
1 40.7439 15.3688 47.7479
1 29.9885 35.0998 27.6616
1 14.604 15.1267 34.7339
1 28.7813 16.5397 7.50264
1 47.91 38.2202 44.552
1 10.1099 44.8751 9.53578
1 48.8328 37.4684 1.5606
1 29.2101 13.7925 19.5289
1 48.9925 14.7725 19.7886
1 35.2209 29.7707 45.7991
1 47.2307 37.0727 23.8997
1 15.4888 17.6175 33.5794
1 33.2219 28.5815 4.90134
1 37.138 17.874 35.4428
1 23.0859 7.98506 11.148
1 35.5045 43.0662 42.4838
1 47.154 21.6687 35.54
1 40.0634 3.32074 4.72473
1 43.8678 41.7246 20.592
1 34.1427 23.1009 36.3087
1 21.6551 9.282 44.7203
1 40.1006 1.23873 0.308789
1 10.0853 39.6969 33.632
1 2.70266 47.1553 28.8588
1 45.3522 27.4387 9.55785
1 36.0433 18.5577 40.7299
1 13.0194 2.46456 18.0064
1 30.8525 43.6879 26.4603
1 22.4286 28.1996 23.7822
1 29.7871 37.9633 8.17519
1 19.1523 1.56642 14.1716
1 18.306 22.7676 44.1302
1 1.24949 43.2731 22.9027
1 37.6552 0.217141 45.826
1 1.19897 23.8254 45.0677
1 1.14327 7.31882 34.8437
1 13.1613 7.27472 0.673021
1 20.5214 1.73961 32.2078
1 14.4867 7.49232 43.7165
1 46.6778 5.09442 3.63401
1 47.4196 19.641 19.8569
1 33.75 26.1546 41.6425
1 46.8264 1.29156 13.1283
1 1.16512 39.8438 9.80999
1 47.149 44.213 10.8925
1 39.5586 48.1363 14.6301
1 20.3129 31.1664 12.384
1 28.4157 16.3872 39.2976
1 16.2211 47.0597 33.4755
1 44.29 4.20424 10.8772
1 32.1678 30.8373 22.3919
1 23.9995 13.9299 48.2347
1 19.5815 23.6568 42.0846
1 12.8432 8.63775 32.9464
1 4.65264 28.4115 1.00124
1 21.9818 17.2992 32.6922
1 48.4682 23.9601 40.4545
1 1.08145 22.5131 13.8727
1 38.4838 30.6174 38.1541
1 22.4505 11.1103 14.1919
1 27.8788 33.5836 1.44715
1 22.6746 29.839 11.1875
1 23.4075 12.8987 39.4204
1 22.9686 0.465673 22.9081
1 48.9317 6.09151 22.4368
1 49.1577 24.249 4.61386
1 30.4582 33.6371 17.5789
1 22.5816 38.3284 20.7266
1 8.71208 49.7495 26.7377
1 19.7423 15.0115 8.73358
1 49.4841 8.91301 18.6055
1 35.3228 32.3094 7.60652
1 41.7097 30.1672 39.9505
1 11.4329 17.2626 9.42691
1 21.5879 19.9476 25.8891
1 47.8727 41.7576 39.7823
1 25.7456 11.164 19.7412
1 39.1491 6.08638 38.3771
1 33.7761 46.3889 28.845
1 16.0108 1.71836 1.74206
1 20.7174 33.7726 11.0975
1 11.982 44.5152 32.5591
1 21.7887 38.7851 36.9431
1 3.5694 47.1784 4.43938
1 10.3625 9.62186 37.6669
1 22.1922 20.697 39.9248
1 42.0505 36.5701 33.2451
1 12.0723 10.1439 22.6402
1 47.5971 45.5387 22.9766
1 8.1094 40.3493 38.5274
1 42.1148 45.0796 26.9355
1 33.5567 26.649 23.455
1 1.80692 3.18734 13.8295
1 21.0403 9.29907 28.4519
1 28.6126 30.0168 31.4761
1 14.0886 41.1242 1.52839
1 27.293 25.3221 3.8462
1 2.1718 16.2756 24.6215
1 16.5155 19.0791 35.745
1 10.1848 8.0522 48.0011
1 0.697237 33.2724 48.4624
1 20.1555 19.3995 31.2731
1 0.17312 5.27447 15.6661
1 47.4762 9.6666 47.8593
1 17.4601 35.3644 30.764
1 33.4034 0.339986 23.1116
1 45.0598 19.961 36.971
1 11.9054 47.0974 45.7245
1 26.9874 40.0843 4.72253
1 7.62154 11.1132 16.7618
1 13.8712 23.0713 14.2351
1 0.178643 27.0447 26.3592
1 4.97983 3.63877 3.12528
1 7.64424 49.5433 1.25727
1 9.25107 1.54241 32.0743
1 33.9487 14.7566 26.5195
1 48.4564 40.7941 10.4436
1 25.7385 46.5076 49.0383
1 7.96662 11.4219 24.1278
1 17.5781 47.7734 41.9167
1 46.4119 42.4279 24.7936
1 11.3418 37.0825 44.6675
1 10.282 10.7691 19.1781
1 14.8993 19.0163 27.1298
1 25.8989 39.0011 1.28506
1 48.7293 31.0142 7.90711
1 7.17137 12.9543 5.70409
1 9.29577 19.2521 32.4045
1 18.3222 11.7192 33.2148
1 48.5608 29.9825 38.515
1 37.9811 26.7214 23.9655
1 45.3262 39.5125 13.5174
1 22.7815 6.30365 37.384
1 8.16761 11.2044 41.2082
1 28.1628 32.2498 29.3179
1 16.3096 39.7776 49.6461
1 14.7567 44.9129 4.66791
1 25.1795 17.9815 42.3932
1 9.44607 23.7498 26.3461
1 30.6977 20.5512 12.7571
1 30.7544 48.0196 17.395
1 23.1775 11.1297 37.1098
1 20.1359 6.42014 23.0148
1 -0.0153576 1.56948 6.12809
1 35.2105 0.332461 38.8714
1 35.1557 7.33336 37.9122
1 4.11882 46.4895 22.758
1 34.9045 44.8494 14.0187
1 29.5114 23.8751 37.4231
1 0.821148 1.44292 0.717377
1 9.402 35.7434 43.0462
1 48.2247 22.9139 28.5868
1 48.4148 0.425519 26.7255
1 11.7325 0.12021 3.2929
1 41.3833 0.100614 23.6483
1 19.6642 16.3353 49.7873
1 13.1519 43.8003 13.7705
1 20.403 26.37 45.8405
1 41.1073 31.1137 25.6393
1 31.6092 20.9623 19.9098
1 47.0245 0.0519659 19.5918
1 16.9598 2.0769 9.18436
1 43.2723 13.9718 5.64333
1 6.526 26.4096 12.6877
1 43.124 35.596 21.3065
1 10.934 36.8576 12.3219
1 21.8082 11.8596 45.4917
1 46.724 43.5556 29.4686
1 48.4541 8.33309 12.4256
1 13.5761 49.6216 26.3056
1 11.8098 28.5343 19.0417
1 0.0490845 18.6573 47.7402
1 5.32329 13.1454 33.4954
1 12.9187 26.1286 0.774481
1 21.0993 27.8891 48.2747
1 24.4677 16.0469 36.6146
1 5.04595 31.7355 8.31916
1 28.4837 38.6587 31.9329
1 17.6324 44.5442 12.44
1 35.9622 1.69471 7.86116
1 33.8597 12.9888 40.445
1 9.45711 17.3159 16.4927
1 44.843 14.428 19.1909
1 40.7737 23.1091 28.7821
1 4.95762 4.97107 14.943
1 41.887 2.32922 47.934
1 0.861988 41.827 40.3556
1 14.6797 48.9751 2.76201
1 38.0793 26.6356 17.7252
1 24.5615 7.3085 43.9983
1 17.1884 34.0653 3.76264
1 22.9695 44.5271 10.1376
1 13.3314 19.5088 38.1217
1 32.0129 29.2193 34.8795
1 32.253 43.6038 9.21431
1 33.8578 2.93511 34.4403
1 26.8936 25.2022 0.447951
1 22.0408 18.0081 3.34727
1 44.9271 37.3198 47.5417
1 25.502 6.87008 11.5978
1 6.97311 27.7919 29.7941
1 30.7767 19.6304 30.9861
1 29.5888 17.5331 21.6535
1 45.5368 49.5652 25.5239
1 7.60315 2.17882 8.50612
1 39.5865 29.147 2.16501
1 39.2595 5.78753 49.3976
1 8.63743 41.1169 46.7022
1 24.4539 29.847 5.34437
1 7.14717 9.51842 34.6779
1 14.3928 39.3251 32.1695
1 32.3625 9.64908 26.0631
1 2.94518 40.8918 38.7545
1 47.6249 33.7963 15.7553
1 15.6016 23.1938 44.36
1 33.0622 0.0335463 10.3169
1 37.2101 17.7564 31.3093
1 34.286 46.6235 25.2047
1 26.632 2.47113 46.5619
1 30.4054 6.75324 45.4762
1 11.2527 3.98316 14.3001
1 15.3483 20.7115 1.74054
1 45.3303 31.5362 17.8645
1 24.479 12.0221 45.4559
1 13.41 0.147535 36.8664
1 3.07209 36.8721 49.658
1 7.7916 9.1232 10.4307
1 40.4561 35.5833 44.3033
1 15.1389 0.836146 33.5463
1 35.8601 35.4601 6.45392
1 21.9941 14.1259 29.2093
1 8.7023 35.7168 18.7862
1 31.2444 6.75156 32.6359
1 8.55805 36.4396 37.5878
1 3.95848 16.0985 8.09961
1 19.3699 42.6155 36.8677
1 0.0185909 13.2721 8.58391
1 27.8352 17.9202 37.1788
1 40.2793 16.1728 34.7456
1 48.2894 30.5809 43.018
1 13.3142 33.6978 9.54562
1 41.6853 39.9424 20.7324
1 18.409 39.521 3.62215
1 3.80438 19.4268 11.8098
1 7.9126 28.7476 6.86038
1 39.1157 8.8102 39.3148
1 41.4138 45.2268 45.0417
1 44.0745 39.7994 36.3576
1 43.378 7.55071 48.8626
1 27.8182 16.0697 2.59998
1 24.7349 22.8882 15.7875
1 2.32247 10.2691 47.903
1 33.4294 15.8785 30.3399
1 46.9232 34.6276 18.912
1 4.24058 30.4799 46.7838
1 17.5422 13.582 13.6897
1 28.4325 1.82904 43.0262
1 49.4389 19.1061 33.1197
1 48.3777 15.536 34.9331
1 2.06535 4.83943 38.4513
1 33.4762 20.1797 12.3942
1 47.3412 17.6236 22.3835
1 0.0802451 11.2467 46.5852
1 16.7942 1.59367 18.6469
1 11.0998 5.50007 16.453
1 46.8753 12.6082 25.0953
1 9.7696 31.87 19.9893
1 14.4999 22.0555 49.2933
1 47.6566 23.7573 10.1752
1 47.0169 38.0053 21.3693
1 13.4996 4.9901 17.8881
1 16.4083 41.9127 16.4062
1 48.9967 43.5689 6.881
1 33.0132 33.9006 6.55516
1 30.321 20.3597 7.4665
1 24.645 38.7782 38.2825
1 27.6515 14.283 7.14721
1 4.48493 40.4991 40.7427
1 23.2573 0.32229 49.783
1 45.8864 16.6792 14.633
1 1.6756 10.6047 19.7893
1 8.51522 42.0931 42.5136
1 16.7712 48.7608 49.6796
1 31.948 33.0478 24.3635
1 46.266 48.8037 17.121
1 46.3034 19.1013 33.0734
1 34.2203 10.3436 39.9228
1 46.2464 24.4234 47.6275
1 41.9188 6.08317 10.7577
1 12.9138 38.8935 38.0243
1 2.16116 8.10077 38.2021
1 36.1987 29.6451 20.992
1 32.3146 40.8706 2.62537
1 11.6281 1.44424 10.2749
1 43.7937 47.9994 33.5746
1 20.3906 24.8144 0.976423
1 24.4616 0.348299 8.16815
1 23.5475 30.3716 20.8067
1 43.311 41.3495 13.6567
1 29.3661 43.4639 43.8647
1 27.8881 6.14793 34.1137
1 17.5737 46.3966 5.18427
1 46.0996 1.68615 33.8253
1 18.2857 30.3553 11.0428
1 15.1766 30.9055 14.7509
1 23.5646 33.6302 34.5322
1 33.6086 7.85833 44.0759
1 33.6625 4.09838 40.9971
1 45.3368 46.2962 17.5592
1 37.9176 2.56175 21.216
1 36.0269 30.1818 32.8533
1 18.2095 13.4796 29.0366
1 26.4413 20.7056 32.5258
1 8.31851 40.5513 23.3752
1 12.2056 27.9873 2.90489
1 31.9529 21.8893 43.4145
1 12.8549 13.6229 27.2702
1 22.6433 35.4967 32.7876
1 6.04272 42.6618 23.0551
1 6.59924 2.61977 0.663396
1 25.6659 35.7854 37.4523
1 19.2133 40.207 13.0307
1 38.9549 11.1371 4.08978
1 19.4438 40.7344 10.2211
1 18.0519 7.96055 3.0217
1 2.642 5.0883 35.7219
1 29.378 23.1465 42.5377
1 8.78115 3.82308 2.05216
1 39.5838 9.47025 16.3418
1 44.1929 44.3387 35.7428
1 36.0484 38.8398 9.90631
1 9.08518 41.784 29.4379
1 19.0506 21.0237 49.2985
1 23.8035 47.8005 42.7455
1 18.9096 13.8259 4.35157
1 23.6315 46.3961 36.4858
1 3.59493 43.5898 14.6511
1 44.9888 29.3539 48.0333
1 46.0934 48.1183 1.23695
1 34.2473 41.258 44.1441
1 18.2841 32.8051 30.7037
1 49.7305 23.6426 32.4864
1 1.20664 33.155 18.5589
1 47.4168 29.1329 30.7975
1 19.4986 45.9594 32.2314
1 38.2666 15.9151 27.7119
1 5.66587 32.7891 5.42114
1 36.3278 0.379937 49.6164
1 24.2601 4.74968 13.5426
1 24.2284 5.41665 17.8951
1 23.375 24.7427 40.1447
1 17.9425 39.053 35.1349
1 49.4671 20.9473 18.7998
1 38.5325 41.0389 17.4829
1 35.6366 13.1925 10.8159
1 16.9235 36.9529 37.3399
1 41.0967 49.3824 26.1713
1 32.3601 11.5067 33.0546
1 32.6555 9.51048 0.270065
1 26.2502 21.1479 9.54419
1 39.9216 7.02911 35.6919
1 20.8352 13.7477 0.0964051
1 35.4142 37.7634 42.0765
1 14.3734 46.3902 13.714
1 15.5376 28.0658 21.2962
1 19.5889 34.139 49.0298
1 9.45467 27.5422 22.6499
1 44.7836 41.5444 49.1253
1 13.6766 30.5467 2.43992
1 27.6927 13.3437 26.8632
1 27.7496 25.5928 17.1583
1 25.5733 48.7808 0.637106
1 30.7501 44.101 23.5984
1 46.1812 20.5436 13.1383
1 20.8186 21.2123 18.3115
1 24.3892 15.9888 39.4663
1 38.8004 42.8384 41.3437
1 3.87395 42.0182 27.3685
1 21.4908 23.6263 15.1865
1 28.0658 46.7885 47.4214
1 41.0054 23.0082 22.1032
1 27.8887 47.1266 6.59491
1 5.91303 3.42299 44.1078
1 17.5637 6.30593 27.7615
1 43.8389 29.5394 12.3258
1 29.7607 3.7376 6.39571
1 45.8975 5.44138 15.4264
1 17.6677 4.3293 22.1192
1 38.0601 7.30695 18.6023
1 41.5211 19.5768 30.8963
1 49.1943 45.9126 13.5462
1 16.0618 29.7774 2.64395
1 28.9307 36.0241 29.9544
1 21.0192 38.5487 26.9337
1 30.6401 41.4386 13.0653
1 20.6373 7.303 15.5931
1 37.8203 15.6513 15.6587
1 11.3881 22.7151 27.8836
1 45.7465 33.006 2.53234
1 15.0982 46.9164 24.2734
1 5.01864 30.8473 23.6771
1 22.3412 27.0302 39.3143
1 12.6904 24.2279 39.0562
1 20.2637 10.0334 5.29923
1 5.45888 5.43132 20.0002
1 47.6185 40.69 45.9624
1 34.3575 3.04854 12.7603
1 45.5344 23.1209 5.35932
1 3.36799 18.7811 37.5733
1 44.466 39.6609 45.8466
1 26.6731 24.1071 36.7198
1 8.70246 30.7066 38.2143
1 48.3331 18.9187 25.6175
1 3.7962 47.3251 14.495
1 24.8325 30.6925 16.3537
1 30.3886 27.0569 17.4053
1 1.08284 12.7207 1.52001
1 13.1173 13.3734 1.15404
1 34.6958 41.2368 48.5081
1 19.4909 46.7007 24.4547
1 37.2106 30.673 2.29242
1 11.7898 13.3008 10.3757
1 39.4951 27.3058 35.1786
1 10.4619 22.9752 22.5651
1 34.6342 41.7262 28.2275
1 42.8985 22.4876 41.3552
1 21.2326 48.3113 5.63436
1 17.3996 45.9635 48.7084
1 15.5339 23.4982 31.8367
1 41.8769 14.4443 22.0683
1 6.65198 35.4656 39.3931
1 31.5297 19.8803 41.672
1 32.0148 18.5473 21.1781
1 3.56855 37.9416 16.1879
1 5.82488 26.2897 19.1714
1 39.4916 24.2496 6.45675
1 6.62145 19.2942 43.7301
1 39.8679 46.765 29.1527
1 49.8032 6.2995 47.0594
1 29.016 31.8075 3.76843
1 18.3014 39.4134 30.3612
1 6.34141 11.218 14.6002
1 47.7797 12.7228 21.4235
1 35.8967 3.26716 36.5873
1 35.2626 32.0575 10.6143
1 3.78404 41.78 43.2135
1 30.7544 17.0331 30.6444
1 21.3091 23.5473 12.3748
1 34.1053 22.4917 8.32732
1 43.1567 29.287 15.8051
1 9.16646 26.7928 43.679
1 18.9348 9.60518 35.4352
1 21.668 28.1544 41.427
1 26.9628 23.8608 8.04231
1 31.5526 28.7746 48.9871
1 26.6017 10.3583 26.9826
1 9.32867 40.5031 49.3244
1 30.3917 0.0970578 32.2993
1 29.118 45.2211 28.3045
1 16.7968 11.3963 23.4513
1 3.36574 48.9649 23.3659
1 7.97933 11.8803 33.1753
1 42.2191 46.3511 47.8302
1 37.7658 3.11455 41.8605
1 18.0781 10.3416 25.4501
1 17.9934 32.0908 22.882
1 2.47683 17.3533 4.04007
1 49.7502 15.789 4.82333
1 30.782 25.3007 27.0076
1 2.98114 25.9407 39.0646
1 35.3618 17.4537 33.4534
1 47.2614 5.02495 24.1734
1 28.445 12.9101 22.1976
1 20.3043 30.9159 15.2181
1 9.8828 11.2596 48.3595
1 34.4501 37.0301 4.22806
1 13.9564 40.9979 34.6545
1 37.5992 40.335 2.68905
1 41.2345 13.815 26.2555
1 17.9061 20.2104 1.71273
1 11.5501 14.2334 40.6836
1 45.6222 35.3917 42.5763
1 4.4118 30.2046 4.48283
1 25.1114 44.6231 39.8641
1 36.4799 4.95519 34.3992
1 19.2263 42.1513 4.44102
1 29.7462 35.9408 16.1148
1 14.3426 21.1839 30.891
1 40.9838 37.3954 14.8333
1 38.4829 15.3222 30.3678
1 47.0174 0.987183 37.3763
1 1.02825 10.197 37.3044
1 46.7546 21.1402 27.0133
1 4.99464 20.1332 45.8359
1 4.14929 20.1222 4.23102
1 15.1787 47.537 29.2256
1 7.65547 41.7281 11.4451
1 47.8024 49.3733 49.3782
1 41.2926 19.0577 45.5912
1 10.9253 47.1773 11.9671
1 12.7785 14.1034 18.5111
1 48.281 3.46021 40.8823
1 36.5335 13.7875 26.2812
1 18.3887 9.42039 16.6585
1 8.10444 14.7035 48.4385
1 3.74964 24.3508 30.1966
1 23.0899 16.2904 46.834
1 39.0511 9.32989 33.0832
1 47.867 17.2655 18.426
1 21.8698 44.047 28.9078
1 19.7864 33.5983 34.5989
1 45.6078 35.347 12.1344
1 10.8773 6.72914 40.9751
1 10.7043 26.1519 18.9496
1 24.5432 28.2326 38.2973
1 19.4315 2.06821 4.74154
1 4.94826 25.1748 33.0079
1 43.1064 11.4129 1.84012
1 0.986837 42.0528 17.6384
1 22.6401 5.57713 0.84974
1 25.4489 28.7942 10.9927
1 47.1061 9.29411 27.9572
1 30.5697 2.50705 49.652
1 44.8675 6.41922 29.1922
1 40.9785 23.9888 39.8374
1 25.921 47.9065 36.6526
1 29.8988 31.3117 41.3815
1 26.7509 34.7371 27.9519
1 2.70074 32.8265 46.6961
1 1.61081 40.6281 21.6744
1 10.1531 31.2499 34.3331
1 19.9982 28.2607 5.024
1 43.6982 29.9462 3.78073
1 6.65483 0.424735 28.6061
1 35.3793 39.2396 20.2898
1 22.7972 34.3527 48.4725
1 44.4967 37.0855 24.66
1 34.6032 19.1192 17.1835
1 7.5235 18.0957 18.1942
1 40.3915 4.83116 23.9161
1 4.73438 7.012 22.4404
1 38.4053 42.9403 32.2705
1 24.5294 43.6065 18.2779
1 29.0965 35.4228 47.7059
1 2.02304 20.9317 47.3623
1 45.0443 24.3611 26.7692
1 47.8463 10.8344 34.8609
1 8.38213 19.7056 24.6424
1 39.2225 35.9108 21.0832
1 24.1926 42.9897 31.8283
1 22.1811 37.7682 2.27291
1 35.5748 27.4478 25.352
1 42.7329 10.3664 18.0252
1 49.4491 35.5459 4.90712
1 49.4038 8.97392 8.594
1 17.0125 46.5676 13.7616
1 5.18349 40.3496 34.0738
1 49.4477 2.20018 3.41907
1 36.761 43.2985 27.8617
1 15.4597 1.14023 7.15617
1 10.428 44.6578 22.9992
1 13.294 5.94245 47.9046
1 12.9718 35.9027 40.4835
1 44.0217 0.440585 1.15835
1 13.4927 14.8753 29.7143
1 1.6743 20.0754 30.2542
1 3.26594 40.1508 14.2707
1 19.9081 28.9156 30.7566
1 46.0872 8.88538 1.77505
1 16.117 34.6695 11.2867
1 9.2269 38.135 39.5798
1 25.2724 10.2292 1.13945
1 48.8765 9.5523 16.0892
1 29.5836 32.293 26.0613
1 5.75946 43.7781 6.10803
1 35.063 34.7036 21.958
1 9.76071 12.3614 16.3289
1 12.3981 45.357 43.5913
1 10.7446 47.5619 37.0528
1 49.3929 43.2717 9.69651
1 6.89156 0.399231 39.5426
1 43.8363 2.59679 35.2909
1 24.9757 45.2795 42.6028
1 45.1687 13.7943 32.058
1 17.0445 2.82618 5.36686
1 17.0689 45.1646 42.3349
1 32.382 36.1476 21.3037
1 42.4902 12.5972 24.0191
1 46.18 2.3988 23.3822
1 0.484424 16.6495 45.8867
1 22.5597 15.4365 11.9361
1 30.7855 20.9471 28.5195
1 26.993 7.84994 6.58217
1 16.8004 12.7932 10.2359
1 6.46081 32.7503 34.155
1 34.825 36.33 25.4936
1 9.48603 30.502 48.4537
1 32.1998 9.27605 11.0057
1 39.4673 41.4411 13.9915
1 38.0442 29.4898 22.9008
1 22.9142 20.756 12.7265
1 27.0905 8.70534 23.474
1 46.4174 38.0994 42.5077
1 6.66826 6.09154 23.9398
1 7.91436 20.3814 19.6986
1 6.20681 13.401 22.9087
1 15.392 21.2366 28.3009
1 1.10212 44.8491 47.5777
1 28.9968 21.313 26.3377
1 39.191 11.8519 27.5408
1 9.38516 37.7508 24.6821
1 25.1577 25.0663 18.3382
1 29.9536 45.1831 48.6679
1 7.81361 25.2391 33.7405
1 37.1046 26.5189 39.2268
1 11.7176 35.5186 17.2531
1 28.3871 41.4205 31.4997
1 24.9298 6.187 7.47516
1 18.9833 49.3567 5.16469
1 36.4378 33.3498 1.66084
1 34.6348 11.316 28.3341
1 9.76384 3.58424 9.71529
1 11.378 45.5597 20.6577
1 24.572 13.8341 43.2493
1 45.1441 44.7836 31.485
1 33.1154 4.91766 16.4474
1 8.65101 42.1747 2.24225
1 2.30087 24.6289 16.9398
1 33.0708 47.4402 14.0877
1 23.5487 8.03404 47.07
1 8.23768 12.5592 20.7118
1 5.66065 27.7969 5.75166
1 46.2512 8.50951 6.82734
1 43.2246 31.5425 47.762
1 8.25363 9.59483 7.60831
1 46.9835 16.4967 5.68865
1 38.6315 30.4989 26.7497
1 33.2526 42.3019 46.3724
1 35.4672 12.2432 1.81539
1 20.434 7.65614 6.75982
1 8.38985 18.5965 29.8741
1 37.2135 40.7238 48.1175
1 43.0372 22.0167 33.2341
1 18.9034 38.7522 18.7797
1 49.484 34.4126 21.0104
1 24.7056 12.3029 13.5492
1 6.90868 38.2273 36.4896
1 34.8453 0.341156 19.2301
1 14.8564 21.1266 35.2436
1 5.46888 11.5547 1.61773
1 20.4945 1.15248 43.1455
1 48.0798 37.0589 8.71979
1 44.5231 27.3533 23.7458
1 36.4735 36.5606 20.4308
1 30.8568 49.0061 23.6173
1 41.8954 39.8891 46.8299
1 44.4271 36.0602 31.2778
1 39.1216 18.2071 33.496
1 6.60563 20.02 22.3096
1 11.9454 33.4628 36.5712
1 40.2684 11.6501 32.3661
1 16.3122 43.4877 30.2712
1 44.644 25.0519 6.80534
1 14.4885 30.5427 31.4844
1 46.2537 11.2947 41.4436
1 8.49631 16.8944 8.58284
1 6.74796 46.1064 21.3836
1 42.3282 9.52995 40.3693
1 32.9192 16.6941 38.559
1 16.3525 3.00841 39.1798
1 8.14043 17.0834 23.5741
1 22.8553 13.0985 24.0111
1 34.3881 4.89741 29.8854
1 45.6833 34.3084 0.102461
1 8.3635 22.4901 24.1963
1 38.4213 0.528928 43.3421
1 40.478 45.1017 5.52581
1 1.82593 48.0379 44.9499
1 22.202 14.8004 21.9758
1 20.2698 31.776 23.8886
1 19.0439 19.2262 36.8315
1 26.8765 6.39422 4.0948
1 44.4089 43.6246 12.7613
1 39.7232 8.2997 29.8456
1 12.3668 7.74012 30.2655
1 29.0997 4.24187 39.9076
1 47.7937 28.3843 45.036
1 22.4128 34.5242 45.8071
1 34.8364 10.6638 46.2131
1 18.9467 22.1783 12.4401
1 15.1146 28.5549 41.515
1 22.9152 36.0113 19.197
1 40.2889 46.2472 8.12554
1 12.7776 18.1618 4.37215
1 47.1783 41.7414 20.6635
1 15.5657 13.676 45.8281
1 3.25114 48.2902 39.2817
1 20.2098 28.0089 15.1651
1 43.6341 40.4485 32.5153
1 21.907 30.2377 45.3577
1 0.679378 13.0531 4.21949
1 0.926264 25.3398 30.4671
1 13.3717 43.8629 34.5911
1 26.4646 17.5035 18.7421
1 19.9775 30.3167 37.051
1 14.1481 31.16 10.446
1 28.7172 4.40607 9.05132
1 37.7308 30.2848 12.8408
1 25.9365 30.7569 41.5352
1 23.1715 49.0366 3.9415
1 19.4002 21.4442 3.49756
1 26.3593 32.7524 26.187
1 27.6545 37.7978 43.4926
1 6.28516 44.0222 38.8081
1 27.5908 9.46916 18.4665
1 33.4747 14.9808 17.9375
1 11.2883 28.0902 35.6719
1 37.8614 17.9003 48.6899
1 33.9776 29.8108 7.42806
1 37.9419 1.04093 36.2829
1 8.21366 15.4064 25.9513
1 29.2385 15.5936 28.4923
1 40.1242 14.2897 39.0996
1 14.7527 20.612 44.7951
1 17.8028 45.8682 38.5569
1 9.68494 14.6354 20.1332
1 26.5185 31.6254 13.068
1 18.9181 8.04635 38.6869
1 12.713 2.57801 2.76601
1 35.5902 26.6885 13.2116
1 11.3142 0.107184 27.9594
1 28.6639 2.14646 16.9568
1 49.6783 39.474 26.7698
1 3.53018 8.88247 45.7387
1 43.7807 41.9625 5.26734
1 6.88442 22.8473 41.3431
1 10.781 34.5333 13.5298
1 49.2376 10.1353 31.2441
1 25.3496 17.8517 27.2602
1 33.8785 44.2834 23.8346
1 42.4195 48.0712 0.501257
1 47.2531 35.7445 31.8567
1 33.9534 22.1511 30.7681
1 47.2753 36.3579 35.5752
1 44.4164 37.5705 29.0501
1 27.8023 0.077337 49.5119
1 2.69679 39.2821 31.0982
1 22.37 12.2286 6.11194
1 44.697 6.62322 2.04974
1 11.2607 15.9161 37.6269
1 7.128 26.789 23.862
1 24.6661 14.397 14.9218
1 17.6549 13.106 41.1826
1 25.1993 8.83723 21.4384
1 17.7003 30.465 48.0334
1 33.6364 47.4922 5.53408
1 13.3846 46.3964 39.8631
1 36.8207 2.2636 11.6655
1 15.8384 38.0886 39.9682
1 15.7724 16.6038 2.16624
1 10.6637 22.1871 40.0156
1 46.7123 9.52945 30.9724
1 47.644 14.1396 13.4805
1 29.258 8.58208 33.3213
1 27.4826 41.4986 20.3275
1 10.4101 9.30743 44.6002
1 13.6663 34.2356 15.3909
1 26.0908 3.29799 27.0845
1 25.4324 43.9707 34.14
1 1.39749 7.23687 42.2153
1 43.2496 12.647 13.7092
1 34.9175 29.7223 43.155
1 40.1192 34.7295 37.2291
1 48.5644 20.7042 30.2619
1 29.8738 12.4873 1.56382
1 0.337525 27.8522 31.0821
1 12.4214 22.7757 3.5012
1 42.7869 41.5829 16.3516
1 46.5712 40.4958 37.8734
1 42.8281 33.6214 17.0985
1 22.1815 18.9463 23.1556
1 45.6816 42.3004 32.446
1 3.76271 33.8674 16.8089
1 42.212 25.2508 26.2286
1 33.239 38.2262 46.2438
1 47.295 39.5969 25.4292
1 16.1604 44.4542 34.2236
1 37.9318 38.7152 32.8901
1 10.7901 41.8522 20.0413
1 14.8901 36.297 42.3439
1 10.4061 3.69827 28.3146
1 8.86923 24.4198 12.8172
1 19.8125 48.3793 35.8674
1 9.69307 12.7258 4.3175
1 47.8879 25.4697 0.964037
1 38.2363 17.3216 2.33317
1 17.035 39.3063 16.8541
1 13.2296 47.1546 4.54143
1 12.0156 29.84 30.537
1 9.25947 4.44047 44.4971
1 18.0216 29.3053 21.5703
1 34.8155 28.2475 27.7639
1 22.23 6.86364 3.93772
1 17.7526 44.5463 28.1805
1 27.4916 8.95033 11.4799
1 17.839 37.305 41.8719
1 22.2145 23.4921 28.7505
1 41.496 47.9678 41.2302
1 32.3502 9.27207 18.1721
1 4.25163 36.5663 43.6738
1 13.0472 28.9975 47.8674
1 44.7862 25.4235 20.2233
1 17.786 47.2197 9.62766
1 14.3076 37.5652 4.39762
1 40.5028 0.988471 16.0809
1 13.9691 18.4162 1.93025
1 37.407 28.8923 28.9487
1 37.5305 37.1271 13.1903
1 26.5578 27.9674 45.8781
1 42.1934 45.8508 13.5385
1 42.0769 11.99 43.6859
1 24.1166 34.9264 13.0947
1 8.0298 46.721 31.6611
1 32.4804 9.98372 42.9549
1 13.3252 39.1312 14.7506
1 39.8974 34.9755 41.7008
1 4.06965 9.95773 5.71814
1 43.1422 33.0933 14.2751
1 40.3093 25.8114 21.4917
1 34.3808 12.3318 43.1831
1 38.335 37.3433 23.9852
1 25.3637 34.7506 19.1515
1 6.25582 37.3876 24.693