4096
 Atoms. Timestep: 1760
1 43.3845 28.9469 2.83878
1 3.38744 4.78384 30.2714
1 17.6727 7.62936 15.1362
1 40.813 33.2878 12.9267
1 0.516528 17.1072 4.99534
1 0.646174 19.2446 31.1871
1 29.9157 23.0843 17.5749
1 16.7311 46.2155 10.6013
1 0.60609 33.0031 34.9571
1 21.2628 15.1249 4.99136
1 0.314469 14.4065 40.1872
1 40.3503 27.7378 5.68291
1 37.9836 32.2009 15.736
1 16.1857 29.7832 31.4162
1 15.6043 9.26441 18.132
1 4.31918 33.3945 10.3251
1 7.96186 11.9504 37.3338
1 45.2852 16.9312 1.24078
1 29.9676 30.8749 15.9351
1 20.316 41.8897 35.975
1 10.008 37.8783 15.6236
1 27.0421 9.58048 33.0778
1 23.608 8.79758 5.24243
1 25.6547 35.7566 15.0403
1 32.5913 25.3137 16.1607
1 6.04839 24.2108 12.5634
1 19.244 31.1615 22.7585
1 47.2382 18.626 25.7549
1 1.16024 8.49965 27.013
1 39.6027 37.0437 11.2932
1 5.80007 12.324 0.504228
1 21.9902 18.5711 30.0295
1 39.1116 28.515 16.7675
1 8.82655 2.11234 31.674
1 15.3535 41.9823 24.9867
1 20.8081 27.2824 48.4444
1 21.189 23.8984 1.8843
1 16.2232 46.2286 32.3968
1 25.5459 5.94306 2.30945
1 34.6368 22.0314 18.8667
1 0.954055 3.69493 27.5711
1 38.6309 38.4099 45.7731
1 3.28935 22.4395 27.8687
1 38.2734 37.7097 0.95216
1 15.5275 9.52757 8.44537
1 47.3757 17.9238 4.95651
1 20.4592 17.046 1.4397
1 6.15329 48.9914 26.0357
1 23.4429 38.6905 35.2843
1 11.5388 22.3444 33.3537
1 43.4283 26.4572 7.70787
1 27.4316 43.5909 46.9614
1 4.46426 10.4611 40.8389
1 31.8391 27.5776 30.7381
1 15.0577 33.6397 22.2812
1 9.79929 39.5908 8.71844
1 42.7153 23.8652 11.658
1 49.7116 17.5858 22.4786
1 11.6423 22.1902 16.5189
1 4.59515 40.15 18.4552
1 28.6321 32.7372 32.5515
1 13.8167 7.41667 35.3019
1 10.9397 3.38847 3.15688
1 3.31518 41.9816 25.6657
1 12.1887 43.3192 1.80184
1 2.65184 28.7371 7.21676
1 1.50945 10.1101 0.977599
1 2.85465 34.8213 47.3554
1 7.80889 42.5464 3.9037
1 26.6584 8.60422 47.0319
1 22.1309 21.2286 22.7655
1 39.9184 33.582 7.07835
1 4.12006 8.82661 5.22209
1 29.3783 40.6827 40.6125
1 14.6846 2.25465 23.4036
1 43.4003 22.9644 5.56263
1 48.19 20.732 17.5145
1 2.05794 43.8939 31.3649
1 30.9756 13.1395 22.3603
1 38.6778 43.6162 16.0881
1 35.1685 16.8753 31.2228
1 4.06728 22.2359 23.7862
1 14.8468 21.5701 31.3361
1 42.8272 11.0276 26.5271
1 11.886 26.5981 11.4748
1 36.1067 30.6967 11.8719
1 39.152 11.643 47.707
1 46.8932 16.6797 48.8949
1 39.1198 35.383 45.351
1 22.4443 26.6816 7.82946
1 4.78873 7.19498 37.1208
1 3.30896 -0.0110045 6.05842
1 34.5211 28.4228 24.9985
1 14.9417 39.2749 19.864
1 20.8232 34.2297 1.769
1 24.9343 8.17362 8.73266
1 49.7433 2.09495 17.0588
1 11.5681 9.76315 30.1879
1 24.8544 26.6899 35.8503
1 39.2002 27.2828 36.7393
1 17.8902 23.6196 13.5507
1 31.1105 16.0107 49.2216
1 18.1571 17.2507 28.4586
1 39.0889 1.77672 40.1142
1 31.4457 42.3917 39.8708
1 22.7823 22.0665 6.9516
1 4.33868 46.0525 28.6384
1 42.4119 1.3238 27.8784
1 45.2481 43.5783 19.3869
1 4.05001 13.3299 15.6663
1 42.207 39.9231 48.4618
1 26.7221 33.6812 7.34831
1 35.2708 0.122454 41.7249
1 35.1316 3.95561 17.4385
1 22.9577 28.2559 19.6442
1 5.72265 31.2415 11.1421
1 47.9575 47.0096 28.2691
1 30.2042 18.3925 48.2257
1 8.59799 38.1245 25.8683
1 47.5673 1.81433 29.8765
1 4.45765 45.5257 18.4414
1 12.4623 1.1204 37.1009
1 47.0878 30.9015 11.356
1 26.014 9.83101 23.5731
1 45.0117 48.6619 38.5103
1 36.1264 24.9086 26.0684
1 2.65346 32.0222 22.5547
1 8.89089 8.91204 37.248
1 20.7059 15.3485 47.0142
1 25.8885 37.2172 10.8466
1 49.6196 9.41647 45.8161
1 24.6723 46.353 8.40267
1 9.50968 30.9004 44.1457
1 2.43488 13.182 12.7546
1 12.7289 28.6744 42.3128
1 15.5033 47.3386 17.6942
1 48.0754 0.23537 45.9309
1 38.4005 15.2317 45.3143
1 0.888395 32.4762 17.1752
1 36.7389 47.7456 5.58136
1 17.4087 26.7865 1.09423
1 33.2836 10.1094 22.3926
1 40.1916 23.4538 40.0195
1 37.4572 33.6933 2.01813
1 31.3103 13.6663 4.94239
1 13.8792 0.124569 32.5759
1 20.6652 36.8144 23.3015
1 7.10706 38.9559 1.82964
1 26.2528 15.349 37.0132
1 23.2831 9.87105 2.82105
1 9.48106 1.89373 9.21176
1 0.165177 29.039 5.58187
1 7.90022 28.2806 24.2136
1 31.889 31.4747 45.5839
1 40.8569 15.6714 32.3604
1 10.7123 6.38242 40.8673
1 32.7068 9.72152 47.3821
1 17.2293 38.1204 7.41354
1 22.1005 39.9363 24.5656
1 27.9008 37.3492 32.1044
1 0.344007 12.9711 23.8956
1 0.801162 43.7536 11.0876
1 35.1828 41.9763 27.1102
1 17.8696 3.72883 49.8565
1 26.0683 9.96889 6.82409
1 35.4089 3.67628 36.3495
1 39.4365 2.62556 6.11395
1 2.95373 0.296985 36.3185
1 1.35506 10.2013 15.0275
1 13.8285 42.2833 22.2297
1 33.3471 37.7088 40.6765
1 28.5697 9.22905 17.3206
1 2.83092 11.1052 6.56653
1 28.6394 10.654 44.416
1 -0.117713 23.3881 49.4137
1 12.2758 39.0914 20.0025
1 13.8119 31.4903 21.6818
1 44.7141 30.2149 40.8786
1 29.6046 32.0802 9.4531
1 16.4711 49.856 17.5247
1 31.7955 1.71111 27.9337
1 31.3172 2.15133 24.2204
1 11.9425 5.85849 8.77441
1 3.9675 10.4499 9.85098
1 48.2875 43.4995 32.3414
1 39.6019 28.4281 19.2321
1 49.4148 0.0971371 39.0144
1 21.1841 26.8618 41.6337
1 32.949 7.46559 35.5215
1 11.171 7.99872 10.422
1 15.4324 9.28155 15.4631
1 28.9468 8.40588 36.5925
1 48.174 44.9738 17.1388
1 39.6445 38.8757 48.3586
1 18.6017 43.6654 39.1526
1 46.9446 2.70467 22.9873
1 4.59394 25.2444 14.6505
1 42.1567 9.05697 12.5355
1 14.7967 10.9365 1.77008
1 49.5778 33.6184 44.9329
1 2.83003 22.5178 48.1094
1 45.5554 16.3106 27.55
1 1.82421 45.3045 28.9159
1 43.4542 27.3281 35.0666
1 39.0812 34.1696 20.9614
1 35.9416 27.8865 13.3818
1 15.776 37.0753 18.1983
1 41.0781 7.21314 7.5062
1 27.6717 38.7293 8.14638
1 13.565 27.1075 49.2584
1 23.4641 29.6421 33.229
1 15.6791 48.9275 43.9509
1 43.3899 16.5917 17.5046
1 39.4381 41.1538 9.67311
1 8.0779 33.6013 41.2526
1 6.27067 36.0301 38.8085
1 11.9084 33.7925 13.3409
1 24.0292 9.23476 44.5983
1 34.6068 12.1132 47.6145
1 17.0628 29.2971 43.679
1 41.4439 20.0528 -0.0883107
1 34.6493 14.5701 2.37943
1 47.4515 20.7757 7.95014
1 0.170978 11.0707 27.6551
1 2.90245 5.74416 40.4021
1 3.78382 13.2262 28.9598
1 47.2966 3.40649 5.92723
1 35.3101 35.0019 14.7861
1 23.2737 9.27226 26.6944
1 27.655 18.0558 1.6799
1 29.2769 4.89048 34.2651
1 37.5415 11.4654 34.9179
1 11.3518 45.7156 31.9332
1 12.8067 42.3355 35.2486
1 14.5075 23.2096 29.0796
1 44.5674 42.1751 34.2857
1 1.27721 33.3768 20.109
1 2.87417 4.80345 45.1896
1 39.9637 44.0801 39.4723
1 7.13874 18.8367 23.4385
1 24.6857 46.2292 37.0974
1 10.0931 41.7942 30.116
1 29.519 2.37351 17.5628
1 0.511122 48.8661 11.4496
1 30.3404 13.4029 43.5672
1 22.5365 32.5508 17.6293
1 34.2263 17.4393 2.19933
1 35.8406 12.9378 41.5495
1 36.9197 2.65344 13.9073
1 48.9945 13.6522 7.92013
1 21.2424 45.6099 24.3906
1 40.2223 49.4405 2.97624
1 19.4419 26.649 25.4616
1 24.5514 17.6641 36.4528
1 42.2078 3.03294 5.19466
1 43.6052 35.5496 35.4603
1 14.6002 22.5099 9.54732
1 3.666 37.0253 45.9659
1 16.4126 39.5613 30.9632
1 21.7933 24.5505 6.28394
1 31.3534 17.7703 11.6999
1 19.2977 37.0491 11.9128
1 27.5084 36.1535 24.5877
1 38.5088 44.6979 2.5953
1 33.1331 7.4524 15.4324
1 40.4908 12.8931 9.68541
1 44.0497 21.0268 39.8579
1 1.8223 3.15404 15.7367
1 31.8924 41.5239 43.4427
1 40.4741 31.0361 27.856
1 34.2696 9.97771 35.0594
1 16.1995 12.3889 23.5236
1 43.448 30.2481 43.3519
1 9.31442 5.36713 36.2207
1 0.886028 17.333 19.1038
1 13.9265 9.11288 10.6752
1 4.54659 11.2317 12.121
1 10.9866 30.2342 16.9917
1 38.9129 14.3014 30.7743
1 48.2493 23.0981 26.4904
1 4.88059 18.9881 31.4664
1 8.19784 34.6419 1.71107
1 43.1137 17.1587 30.2337
1 15.9648 41.1655 6.12291
1 33.5719 47.1135 32.0044
1 24.1184 39.5386 15.9406
1 18.4019 19.8768 22.8018
1 26.4755 48.0038 4.7012
1 16.0995 26.5301 35.4412
1 9.51811 37.7481 37.1783
1 2.887 45.1952 24.157
1 26.1861 5.92747 45.448
1 30.476 35.7497 15.8006
1 15.961 17.9279 30.5154
1 12.3289 26.0535 41.0967
1 4.94102 15.2049 40.8309
1 -0.000721995 11.4319 42.6421
1 33.5734 25.65 41.7094
1 41.3966 37.5183 27.6416
1 13.9183 18.1666 15.8939
1 3.5868 28.5078 25.0383
1 33.1256 43.4345 30.8775
1 46.39 12.7756 1.68562
1 9.67622 15.6994 21.3941
1 12.2877 14.2561 16.615
1 18.1191 8.53674 19.254
1 26.1455 29.1333 7.24346
1 40.891 36.703 6.95407
1 36.7007 0.137698 14.949
1 36.1561 24.1701 21.7063
1 46.9924 16.3453 22.525
1 42.7282 26.9902 42.0346
1 1.15651 14.617 49.2675
1 29.3493 20.0599 13.3223
1 12.6522 40.8311 29.6001
1 1.08857 31.6972 3.69847
1 29.7714 47.0299 39.6488
1 24.0127 27.75 45.5488
1 24.9678 1.79031 44.733
1 36.6299 15.0164 14.6418
1 32.3916 40.9274 36.4061
1 6.22213 44.5157 25.1145
1 39.8362 20.3506 10.1726
1 13.9457 18.8711 45.9731
1 32.0923 12.2782 45.5851
1 26.6731 19.4103 41.2174
1 3.03816 8.27185 19.6142
1 6.00958 22.2878 25.9888
1 19.9627 0.989272 42.6744
1 19.7893 26.9282 17.3124
1 35.4022 25.5761 17.5809
1 19.9207 5.09482 21.0824
1 1.10638 18.8477 47.7392
1 41.719 33.7359 28.2721
1 6.44465 10.9729 18.9977
1 44.1552 9.91413 19.8604
1 45.5138 32.0571 26.4363
1 31.3324 39.6958 5.40402
1 8.11756 32.7448 23.7885
1 23.8772 23.4309 28.5495
1 46.8456 39.2905 22.4
1 45.1415 22.2803 49.3557
1 48.8042 3.95242 31.669
1 28.3205 11.7095 34.9231
1 35.4802 25.6508 5.54287
1 36.1773 32.3417 33.1083
1 28.3303 5.668 10.5595
1 18.4984 39.8411 32.4556
1 47.8753 18.3036 30.4919
1 1.33261 47.7637 6.08234
1 8.19548 46.5903 26.1269
1 37.7207 27.0544 41.4546
1 14.6635 14.0724 42.0514
1 23.0082 1.79075 14.6215
1 8.30341 43.4378 44.896
1 9.13293 13.9236 25.6636
1 41.3756 29.2027 47.3074
1 42.7077 7.95913 43.4399
1 21.3353 1.64283 17.6779
1 35.6773 48.9182 31.5587
1 26.8825 26.214 37.3674
1 19.4483 32.9849 12.4288
1 29.4984 6.81234 22.7162
1 16.9779 14.2602 46.1264
1 8.29508 43.035 23.3069
1 45.2754 6.50671 14.5222
1 0.0146632 34.1906 5.47078
1 0.863268 0.364658 34.745
1 19.0584 12.0319 41.052
1 17.8671 41.1405 34.7422
1 17.3305 6.39538 5.47749
1 49.214 9.1757 4.17557
1 8.57423 13.5116 13.4846
1 28.636 16.2204 6.21113
1 47.214 15.849 9.24058
1 41.7015 1.146 9.16318
1 2.65815 40.0813 7.00916
1 29.9925 28.0704 4.74082
1 25.3313 2.57937 12.9374
1 22.8549 49.527 39.1026
1 16.0121 6.57853 47.3103
1 36.5958 5.9179 6.52259
1 44.2284 26.0308 28.3042
1 12.6564 6.81566 6.12
1 19.6233 15.2986 44.573
1 9.62528 5.00452 49.5184
1 4.49235 31.9608 2.93215
1 20.3359 10.8446 33.0946
1 5.1906 9.0288 32.3853
1 3.59065 18.5823 9.497
1 34.5449 31.4789 45.7183
1 32.8862 8.49965 9.57792
1 28.0607 30.2979 48.162
1 13.1462 37.4997 12.3964
1 25.3569 7.97019 31.1677
1 26.4035 14.1283 34.2586
1 6.71378 48.2176 15.1568
1 4.57233 15.2231 47.8829
1 33.4081 30.5935 12.9547
1 25.1997 49.6996 31.3329
1 13.8182 6.87953 18.6625
1 6.57767 8.81033 6.43103
1 36.4652 3.04796 27.8231
1 25.7428 38.4377 45.0422
1 3.10377 12.3267 44.6166
1 45.9974 24.9072 14.6283
1 24.3454 24.7386 21.6127
1 45.0353 43.6656 26.8568
1 23.5202 12.9295 24.8801
1 33.2479 48.5375 49.1135
1 34.9846 5.73202 34.3857
1 9.7613 4.4303 19.9855
1 23.0914 35.6038 14.7809
1 25.4799 31.0287 31.9338
1 21.6812 31.6 35.1329
1 31.084 28.7879 12.9805
1 26.2736 22.7061 30.7144
1 25.519 38.4722 31.2034
1 18.3683 48.6169 33.5962
1 26.6817 1.84759 33.2192
1 10.314 32.619 20.035
1 6.26956 28.2073 44.7762
1 1.36061 49.3728 16.3206
1 22.9542 34.5205 39.5455
1 15.1692 0.384867 12.3714
1 21.4549 18.4232 40.8106
1 10.8515 37.1895 21.3361
1 10.4407 36.2609 5.44271
1 25.216 27.2215 48.1271
1 12.0662 13.2739 42.0559
1 24.211 3.36947 29.3538
1 15.0612 7.20958 2.15703
1 7.0476 24.9559 47.3875
1 17.4457 21.307 32.1982
1 2.77305 49.533 10.5983
1 0.678307 11.9759 46.2949
1 22.4946 30.4324 30.1602
1 30.3849 11.5996 32.497
1 40.3328 24.8023 48.1031
1 9.32481 46.7044 41.4714
1 14.1237 4.70409 12.1941
1 17.6325 14.2651 21.6115
1 23.6861 42.1341 18.6922
1 0.570684 40.2364 28.3047
1 2.1181 3.9454 0.377997
1 44.1078 12.5421 0.219452
1 10.4729 5.86295 43.5436
1 47.1065 27.3433 27.989
1 37.5141 44.8305 45.594
1 27.4143 0.503595 3.20898
1 45.8135 48.8502 22.6423
1 3.85942 47.0683 38.6168
1 10.3749 46.1534 10.8045
1 46.8031 41.758 30.458
1 6.34396 27.0809 18.5498
1 19.1399 15.0568 15.8095
1 24.5857 39.9192 4.8875
1 40.1643 34.4428 10.5391
1 7.56588 18.0955 3.45206
1 45.1779 15.5373 31.2667
1 16.5359 9.34381 34.778
1 3.50735 32.4552 46.7824
1 35.076 22.5584 26.2282
1 0.270996 36.6884 13.5893
1 25.2904 13.5104 38.6442
1 4.40595 22.0706 35.2165
1 26.5242 38.0993 19.1745
1 5.92226 40.7591 39.1242
1 1.47343 48.0952 44.555
1 31.094 26.0454 26.9741
1 4.70238 20.4715 19.8719
1 27.2796 32.5569 21.4662
1 1.45333 13.8828 9.57656
1 16.2996 18.8846 38.1693
1 26.0777 13.3441 21.4678
1 43.5044 4.48471 0.758284
1 31.4692 9.60481 44.4498
1 33.1321 48.7827 40.7462
1 44.3339 5.68612 29.3537
1 34.3297 47.128 27.6285
1 32.5471 26.0506 46.0644
1 9.12074 8.1979 29.9808
1 6.2884 36.6175 48.0941
1 42.5228 22.327 14.958
1 0.574467 3.55689 23.9038
1 19.0991 4.60099 43.5428
1 42.6477 20.953 17.2145
1 28.4043 20.9767 44.4634
1 2.12386 41.1867 49.5631
1 17.086 25.7786 46.6209
1 49.3076 32.6199 27.2668
1 35.9796 16.9776 26.2795
1 43.2015 6.51289 16.9935
1 9.15805 2.21981 13.8785
1 0.0420975 8.39035 43.3868
1 8.92694 24.9816 15.0821
1 1.66733 39.116 12.2723
1 14.84 37.7529 23.9358
1 18.6755 19.2427 45.4079
1 4.19857 49.1551 16.5506
1 25.715 11.3846 14.9917
1 15.5764 8.98446 26.3765
1 11.4891 41.2081 21.1146
1 9.44047 15.1541 6.65336
1 2.96551 24.9389 23.9213
1 11.2535 23.5332 2.28112
1 18.0232 27.3134 48.5423
1 36.9025 17.5809 44.0654
1 9.52597 21.6234 13.0247
1 25.4446 48.7059 37.8684
1 23.7631 36.9437 5.55599
1 49.1496 25.0642 21.3552
1 28.7197 4.74449 46.0986
1 15.6608 6.76173 11.7529
1 6.82367 18.9566 19.6278
1 31.2875 27.5082 43.9835
1 23.443 12.5814 8.39625
1 46.7619 40.8442 47.782
1 4.08314 32.3668 32.8536
1 14.1806 45.2848 37.7087
1 35.9709 15.5559 10.6455
1 18.4453 49.4585 4.29879
1 11.0544 26.8342 49.3257
1 23.0783 12.366 4.04088
1 17.8357 28.3395 33.4806
1 37.1022 23.5191 33.4993
1 26.3015 21.4309 9.11479
1 44.6856 11.2586 31.878
1 25.8129 22.4296 6.41773
1 17.4037 11.2137 9.42557
1 47.4366 32.8538 37.8689
1 29.2102 17.8593 16.988
1 6.66494 30.5855 23.8394
1 41.113 8.73239 35.1783
1 40.1797 12.2718 21.8849
1 29.0056 49.4544 35.3123
1 45.2184 40.1735 17.5087
1 27.5649 26.2725 16.4772
1 31.526 39.7875 49.0669
1 47.7969 43.9366 13.1818
1 18.3545 31.4426 7.78679
1 41.3724 23.1644 35.7544
1 18.04 30.9882 28.1601
1 41.0267 11.1262 36.7168
1 48.6035 26.7796 45.256
1 48.4546 39.3409 33.5881
1 17.3773 21.4682 45.0457
1 18.1865 48.5209 1.34598
1 38.1728 31.542 34.4
1 39.1327 43.6553 21.6909
1 29.0703 1.29172 6.58
1 36.8763 19.3057 41.8498
1 13.4873 14.3972 20.1239
1 15.2646 19.0474 2.69863
1 39.5479 23.3517 6.87962
1 38.906 8.83642 8.2635
1 13.915 0.363311 42.5816
1 40.2514 25.5787 3.57169
1 2.96202 -0.0296271 20.3404
1 33.0442 40.7195 1.65223
1 5.87035 4.99342 31.0791
1 40.9695 40.7524 17.7862
1 19.3219 13.8527 29.9461
1 19.8582 30.9172 25.2235
1 18.5297 11.2389 30.1369
1 45.4185 27.8383 24.696
1 47.0824 12.2928 10.3843
1 10.9877 41.8299 37.3499
1 39.4929 13.617 49.368
1 34.0308 16.2724 47.7309
1 46.9908 24.2125 22.9061
1 9.98132 23.3109 31.5075
1 14.8901 30.2238 3.09075
1 32.6626 42.6803 17.3249
1 32.5526 46.9421 18.8743
1 43.0385 26.4516 18.5003
1 11.5806 23.3901 21.4643
1 31.3557 43.1911 37.2147
1 39.51 43.5376 33.0313
1 45.4144 39.3702 36.8168
1 34.1586 13.8059 35.7218
1 33.5015 22.4202 5.7856
1 33.196 24.9619 9.69074
1 10.6828 14.2175 48.122
1 43.7647 22.2977 33.2293
1 47.6559 42.4727 2.65457
1 38.68 27.287 12.9576
1 12.7714 11.1737 5.76839
1 31.3891 15.0391 46.5092
1 8.6745 33.0193 26.3179
1 5.2982 14.82 30.4432
1 11.0261 9.493 41.7625
1 34.6885 31.8635 19.063
1 13.897 2.90727 20.728
1 44.2523 12.9732 39.0632
1 18.2906 45.6029 37.0003
1 47.5657 45.9863 19.9509
1 44.9555 7.30697 33.2909
1 8.698 27.019 21.6452
1 14.2761 19.5352 0.394789
1 3.21461 17.2706 17.6278
1 41.4423 46.0397 21.0766
1 15.6287 48.8834 2.60955
1 13.0467 44.1282 17.041
1 2.83812 40.1683 14.5985
1 32.2503 38.1046 2.87118
1 28.2494 22.9687 10.2634
1 20.7513 34.0585 28.9108
1 47.104 32.2777 6.79387
1 32.649 47.7989 36.7544
1 17.2483 44.1625 34.6916
1 48.6769 19.0085 49.2242
1 48.9322 9.55403 19.4993
1 13.3231 49.2946 48.8145
1 14.669 33.7654 0.601122
1 44.555 36.1938 17.8501
1 38.4294 41.4551 14.0262
1 44.8444 20.3888 31.5599
1 25.699 7.39352 42.9507
1 2.60138 30.625 10.8238
1 43.4034 4.6213 42.291
1 0.283922 32.0289 49.1663
1 47.3735 11.1588 48.883
1 36.7365 21.1348 24.4174
1 32.9909 46.2091 0.65642
1 19.4019 42.7314 46.594
1 28.6457 44.9624 36.1828
1 18.4158 24.1626 1.82335
1 20.2698 12.4636 5.86882
1 34.084 32.8345 24.8197
1 38.5077 44.4515 7.75118
1 23.9552 3.1689 42.3117
1 32.859 48.8678 34.2074
1 10.005 46.6451 0.435841
1 39.5778 4.87503 30.3853
1 23.1056 42.9606 13.409
1 9.97139 34.48 8.83681
1 26.8866 2.37191 46.5548
1 23.5349 6.71112 48.7411
1 25.45 9.36444 40.8454
1 44.7631 34.5643 11.7902
1 41.1015 7.12384 25.2129
1 2.37677 33.9487 27.7207
1 17.4031 2.76211 23.7583
1 23.4878 22.9507 20.215
1 4.73581 29.8217 34.5905
1 10.2644 24.7398 4.63284
1 37.6859 28.5838 38.4192
1 9.13684 6.94551 25.4399
1 4.24272 44.3611 34.9538
1 2.7972 25.4634 32.5361
1 45.9292 44.6919 49.1163
1 9.03972 30.5481 27.4396
1 19.0171 49.1147 21.5263
1 45.447 16.1306 3.81799
1 25.134 27.3541 16.1473
1 15.549 1.60131 3.63796
1 48.4156 9.54081 34.7455
1 42.9777 40.0296 38.0242
1 12.9871 0.509608 6.91539
1 47.3294 15.722 16.8966
1 45.9167 28.5976 36.65
1 24.2712 24.2281 12.2317
1 3.21381 42.9069 22.419
1 19.1243 20.2254 0.173608
1 17.5447 7.56774 32.3688
1 27.1036 13.7913 4.3506
1 22.4752 34.7925 3.50789
1 14.9192 49.3341 22.002
1 45.6087 24.9942 45.5616
1 47.8618 39.3291 38.1754
1 30.5331 44.3687 41.3607
1 19.7071 27.4373 30.5825
1 8.11549 23.6433 34.7895
1 41.4891 37.5611 21.7887
1 1.40914 44.2729 26.4389
1 22.3313 49.1212 11.3649
1 34.3624 22.7971 34.1849
1 14.1611 35.8017 2.17277
1 34.1476 40.9512 7.89907
1 22.4289 23.6533 16.1198
1 18.6214 3.319 10.236
1 26.6258 23.9261 41.5659
1 6.81223 36.3584 33.9606
1 7.65345 19.605 17.3073
1 38.1174 37.0178 5.14315
1 35.0714 8.3128 0.569064
1 22.4657 25.4998 36.6763
1 38.5624 47.9372 31.4232
1 31.8524 49.0874 47.1054
1 41.1774 18.4798 37.4093
1 26.2093 20.7359 4.44429
1 45.5671 4.49471 32.9028
1 19.149 5.07397 1.90044
1 36.798 45.9172 41.7664
1 24.6106 43.6586 4.30448
1 22.2555 43.7627 20.6057
1 16.773 37.972 40.8642
1 12.0617 28.2845 22.09
1 44.1753 31.5185 1.93149
1 9.74938 32.2184 48.3858
1 32.7739 18.1724 32.009
1 36.5588 33.6721 19.3979
1 13.1717 3.9277 9.75705
1 22.9607 34.4257 24.3215
1 49.6321 34.3895 47.6035
1 27.8097 21.2884 19.3365
1 29.7906 2.23306 45.438
1 43.4299 42.5521 1.30926
1 6.63412 28.6185 27.7055
1 30.0615 19.5796 1.02158
1 24.1375 42.3875 48.8252
1 44.3785 35.1433 48.66
1 23.5431 36.2587 10.2174
1 1.19923 2.52203 43.3674
1 29.7611 3.82508 36.624
1 36.0415 23.6992 15.6431
1 27.7069 7.90588 9.41652
1 47.2918 1.12528 4.52826
1 10.3915 2.36983 16.5153
1 46.1519 45.0898 11.0885
1 32.6548 5.26569 17.1342
1 13.1437 49.4792 10.9994
1 13.8949 27.6165 3.33041
1 37.3114 30.4482 29.2537
1 17.1125 29.3255 36.4387
1 29.167 30.3584 7.31942
1 21.5716 4.90041 0.241812
1 37.2834 27.0511 22.958
1 14.1532 22.9017 33.4682
1 47.6017 34.3286 1.82819
1 9.8028 1.39681 45.9809
1 11.4483 34.2212 31.9747
1 37.9705 34.382 41.9245
1 17.0722 30.1979 41.1759
1 27.6971 0.0718438 25.3112
1 22.4652 12.143 12.9172
1 0.916274 45.6931 39.5361
1 41.7454 10.4726 9.91832
1 18.6365 43.6245 10.1663
1 44.6898 23.703 40.5761
1 34.6759 27.4934 10.4307
1 30.3626 22.6694 14.861
1 7.33432 26.9123 39.7334
1 49.4379 14.6999 15.3639
1 44.8093 42.4727 16.7958
1 20.167 39.9216 9.47744
1 28.1101 34.58 37.1395
1 46.2972 0.179239 36.5462
1 22.2323 3.17091 44.9277
1 23.5251 1.28936 48.5083
1 24.112 34.4373 18.7089
1 39.7818 40.6849 40.6197
1 14.9145 13.3617 16.6648
1 2.55395 33.0552 30.4048
1 14.95 17.1719 22.4806
1 30.4559 1.28445 0.501485
1 49.2568 24.1102 38.4399
1 18.321 46.1287 49.2694
1 47.1916 30.9411 45.9309
1 3.45349 28.2228 42.2933
1 41.9473 8.91065 16.7728
1 14.6445 28.5522 44.2587
1 42.5823 24.1087 49.1628
1 34.7414 0.161332 22.5317
1 3.27215 42.7037 10.7338
1 7.81184 33.4934 11.712
1 41.7397 34.3575 37.1733
1 48.5558 21.0995 24.5127
1 39.6963 1.4974 32.6781
1 37.7083 49.0686 10.4513
1 25.9025 30.8846 10.9368
1 18.6702 42.5471 29.0638
1 5.49337 16.0447 19.2594
1 3.26545 19.8533 17.6749
1 42.9232 5.95935 46.4883
1 33.5643 29.2088 3.76864
1 49.5213 4.18374 2.45261
1 34.9732 13.8519 12.8459
1 28.8933 24.146 1.23317
1 34.7676 31.7783 5.53249
1 35.0546 38.7465 10.9066
1 10.6343 32.1946 40.649
1 8.64717 8.90585 27.2057
1 25.8749 35.8891 38.2771
1 23.1717 32.7557 15.2151
1 37.8504 29.172 2.17281
1 32.8451 20.6369 33.2995
1 2.26388 47.1712 8.69394
1 27.9602 4.52529 2.46962
1 47.0358 48.9495 20.6002
1 29.1892 2.18407 26.3701
1 10.2502 42.7263 18.9488
1 12.6803 3.07862 31.0926
1 47.3014 31.5439 41.8765
1 0.316567 44.8523 42.2163
1 12.0591 11.6011 19.8218
1 17.3967 34.8738 30.6099
1 38.1371 17.951 4.72733
1 47.2632 18.1289 7.47975
1 34.4136 25.9477 24.0473
1 12.2519 16.5933 31.0203
1 32.3782 0.601868 38.0445
1 3.15292 20.2393 22.0194
1 30.2434 48.3749 12.3524
1 19.047 16.5935 3.8522
1 5.44782 5.20523 7.56876
1 33.1334 22.3326 1.12087
1 12.0902 44.046 39.5249
1 36.0966 28.1555 4.35007
1 1.75232 20.0047 28.5982
1 17.9999 19.4462 2.53901
1 10.9527 14.4915 34.2262
1 30.6953 39.0508 41.9014
1 5.75891 29.6886 3.86448
1 26.7458 47.6074 32.227
1 1.95555 4.43206 36.0521
1 12.4864 47.2506 6.93604
1 37.7709 28.999 20.884
1 28.5766 32.5143 19.1461
1 37.8156 38.1872 23.3129
1 47.0096 6.65352 30.2874
1 4.6399 4.96065 35.8148
1 0.670308 48.3148 28.9882
1 38.6657 10.6414 28.011
1 48.1915 25.1504 42.9993
1 1.26758 7.78308 47.9676
1 21.0672 44.3376 45.487
1 8.69004 9.13532 12.9432
1 45.8957 38.9169 45.7907
1 1.03046 16.3093 38.0932
1 21.863 5.35465 8.56503
1 4.01143 18.2594 13.5742
1 19.9561 11.9841 45.6053
1 45.4717 29.4901 22.5856
1 13.9945 13.2759 7.44981
1 16.9822 26.3382 31.3988
1 11.4394 19.7597 20.8806
1 33.9765 10.2801 1.79812
1 40.9205 49.5841 15.3287
1 42.5692 20.7847 21.3898
1 9.05775 40.346 36.1037
1 13.3772 26.1208 44.9773
1 45.9483 36.5285 14.0138
1 6.22996 7.46552 44.2864
1 14.31 37.1631 16.1709
1 24.8096 33.2067 41.1486
1 15.7613 45.1598 45.9431
1 19.8657 29.9127 36.6032
1 35.9678 2.79425 48.3498
1 5.35025 41.2173 22.7221
1 33.3882 15.4477 4.91926
1 28.1401 45.3721 17.979
1 43.4646 48.1279 19.0301
1 25.5931 7.81944 0.381737
1 5.56972 17.6546 28.9901
1 30.6465 25.1078 34.1877
1 30.7604 14.3173 34.0649
1 39.3723 25.4817 44.9615
1 28.6538 34.8324 17.681
1 9.93708 22.6053 41.0365
1 1.12219 5.50907 14.6091
1 14.9495 26.8004 24.7492
1 17.9229 27.3405 5.2972
1 31.3802 26.0564 13.8078
1 7.11436 3.70396 22.207
1 44.5559 34.1291 6.30018
1 16.9315 24.6312 42.0663
1 37.6243 44.812 12.1682
1 38.007 17.833 18.3611
1 20.0764 15.7779 21.0746
1 37.237 5.7711 32.5192
1 20.8567 11.0769 22.8532
1 0.946496 28.7399 25.9587
1 14.6289 32.9954 17.8054
1 14.41 32.7724 46.1701
1 7.21145 19.1407 41.1781
1 6.71315 11.3019 24.1219
1 0.945913 6.82291 35.4939
1 5.939 11.3279 29.2576
1 37.0622 12.4861 23.2329
1 13.9051 38.9368 38.3667
1 12.3096 41.8894 47.4374
1 24.095 4.74004 16.5206
1 45.4542 17.5957 18.4093
1 1.53705 32.6902 12.8437
1 37.5315 48.7545 1.8214
1 23.9293 48.1079 22.1302
1 10.8352 47.4665 36.7716
1 36.714 39.7702 16.944
1 27.1554 43.3989 26.9888
1 18.5687 6.91781 12.7905
1 8.72581 49.6344 16.4364
1 25.207 22.255 2.18106
1 2.11782 32.2006 44.2272
1 29.5099 7.97645 2.56061
1 17.2603 3.81389 37.3662
1 14.2421 29.9316 25.0355
1 48.8721 44.693 4.05954
1 33.8126 24.493 36.7178
1 6.49865 9.67371 46.6483
1 24.0259 45.4548 12.3126
1 44.9485 26.7159 43.8047
1 28.8255 9.06773 14.6458
1 0.150037 12.6317 11.4509
1 32.1835 35.1182 20.1231
1 7.64078 37.1831 5.52844
1 42.4579 39.4437 24.1995
1 19.4011 8.62956 30.5966
1 0.586726 46.0066 32.6092
1 0.581881 40.3871 37.2753
1 43.4681 43.1101 8.56831
1 29.9408 4.43464 41.7334
1 46.3015 7.95894 40.0175
1 19.9782 43.9066 33.1952
1 46.4564 9.95487 29.1489
1 12.9519 2.87413 16.282
1 23.0493 44.4952 47.5488
1 37.1461 43.6955 25.8334
1 31.6088 17.5303 20.8863
1 5.569 46.7429 22.9982
1 46.0943 14.6095 43.0296
1 15.0176 13.6357 9.96017
1 31.6956 21.7611 21.508
1 32.7136 5.79133 10.0615
1 28.6171 17.8683 11.6293
1 20.2408 27.1452 35.5727
1 29.688 43.4475 43.9164
1 6.84541 36.2622 3.21431
1 34.3204 14.1088 24.9617
1 28.5978 31.4793 13.8657
1 44.994 30.483 10.0118
1 43.1677 14.2686 19.1161
1 25.4792 16.3751 32.2931
1 46.5698 36.4844 27.7821
1 12.2643 38.0958 36.3771
1 45.2046 17.6736 21.0119
1 10.275 4.24931 30.4675
1 13.2218 35.9547 33.4778
1 1.91957 8.51213 3.1747
1 39.8358 15.87 21.8463
1 40.6326 17.5869 24.7645
1 12.8441 45.3656 10.5095
1 27.2924 36.2163 13.0154
1 24.251 12.1129 47.2477
1 47.6878 14.2041 25.334
1 45.6991 21.8641 37.4276
1 22.9274 38.8229 7.38984
1 23.5086 41.7008 32.2835
1 20.2279 7.79367 36.4077
1 15.8234 40.2188 46.1343
1 36.984 21.4768 45.3998
1 31.0528 19.4939 23.2445
1 0.276168 10.0239 6.48182
1 0.395051 48.7891 23.7485
1 17.1262 5.13295 16.5456
1 43.5723 42.4329 21.3603
1 41.8872 11.024 3.26003
1 2.60611 0.236469 46.0803
1 42.5363 18.6545 32.494
1 30.4397 42.3189 15.6063
1 13.3506 5.45424 47.1314
1 18.0318 20.2433 6.91
1 1.56208 25.2074 6.17948
1 42.0632 6.62964 40.9568
1 0.796771 44.6191 13.7853
1 47.0914 44.5781 22.732
1 36.348 23.8995 19.1922
1 42.3167 22.5116 19.0805
1 33.2965 40.5244 40.2914
1 32.4888 7.04605 44.5062
1 15.1367 11.9682 14.593
1 11.8397 31.0847 13.9825
1 33.4737 0.0517705 2.05992
1 40.0453 18.0849 44.698
1 25.9809 33.4448 33.6488
1 49.5789 39.9139 8.74264
1 26.6511 1.06784 17.7163
1 14.2075 38.5824 42.662
1 32.304 44.2412 19.3801
1 16.7934 16.7067 33.0562
1 7.82791 6.23612 6.42766
1 20.9324 7.57683 33.7215
1 -0.037602 40.8818 11.1768
1 49.2467 36.5288 17.9827
1 32.7012 44.9023 33.6453
1 29.9145 3.68399 19.8132
1 38.0037 49.2965 45.0419
1 1.48296 31.7189 39.481
1 4.04356 16.4297 45.1317
1 7.45494 24.7768 4.78188
1 1.8796 36.5141 27.4414
1 48.5826 14.8321 32.4907
1 9.07305 48.5068 34.8067
1 34.6033 16.2006 44.66
1 15.9673 34.5291 19.4222
1 10.9631 11.9894 -0.0873545
1 19.8107 20.1489 19.1755
1 13.2389 32.2844 32.195
1 38.6844 12.8256 41.7542
1 30.2486 34.1538 45.1055
1 24.0072 11.7803 41.4636
1 14.0177 16.3448 14.0583
1 25.9862 12.8557 26.3635
1 47.0216 17.4491 39.5518
1 42.5313 1.59629 1.27611
1 5.59906 20.0269 15.9541
1 38.1915 6.77016 47.0407
1 48.8074 41.8335 0.162723
1 35.8662 0.939256 2.81371
1 18.2639 23.5706 24.1483
1 23.5638 34.5165 30.1459
1 13.5611 12.9837 25.6171
1 24.0974 9.85765 10.6806
1 41.4133 4.27682 15.4787
1 43.7827 13.9207 32.7673
1 24.4962 32.0302 29.489
1 39.9591 0.558514 30.274
1 44.1527 27.8347 31.9697
1 17.2875 29.7887 48.3091
1 39.0341 10.2952 2.55244
1 32.6125 4.74611 23.4405
1 30.4959 32.3247 23.0116
1 30.8245 30.8939 19.8327
1 42.4837 29.0286 11.3203
1 16.7992 12.7178 2.29666
1 46.3794 40.385 4.1949
1 16.4861 14.9703 3.95417
1 2.5877 41.7669 28.5336
1 35.6517 37.0299 9.06233
1 43.1854 35.2952 8.3608
1 26.9767 21.3951 37.6979
1 6.79242 13.3207 8.35037
1 3.87614 26.6944 19.5766
1 47.364 33.6597 40.3053
1 24.62 41.1757 25.5542
1 13.3131 30.067 46.3973
1 14.7569 25.6751 15.8131
1 27.2302 12.5118 24.0118
1 45.0389 40.6675 12.0537
1 25.086 46.3392 48.6065
1 22.661 42.2463 6.02053
1 19.3796 21.0188 4.72802
1 24.4727 44.4215 26.0108
1 25.8332 31.6198 48.7877
1 1.70948 48.1678 26.3753
1 27.8048 5.60918 20.2917
1 26.9863 23.624 12.9738
1 24.006 32.1711 46.3028
1 41.0114 22.544 44.1077
1 42.0476 27.0419 1.23818
1 36.9915 8.34362 34.581
1 13.871 20.7602 13.2444
1 27.1393 19.449 34.1741
1 47.6481 12.6294 30.9836
1 18.0862 17.38 43.6209
1 3.31908 1.73052 41.9026
1 11.4544 6.02102 23.3129
1 31.4686 17.367 2.0684
1 24.2961 4.56572 47.0868
1 17.8849 4.68698 47.1894
1 30.1495 24.9704 3.76896
1 12.2664 19.2094 27.7612
1 34.6682 48.2766 20.0925
1 8.21214 38.5329 28.8556
1 11.6954 9.95689 32.941
1 42.6704 39.1302 9.19369
1 6.53806 17.1071 45.5123
1 16.5966 47.8657 13.4714
1 46.6582 5.07457 24.4287
1 20.1403 34.405 21.9465
1 -0.0419944 10.9163 30.3259
1 1.69532 3.98639 38.6852
1 6.07616 29.3782 30.2549
1 32.2772 34.4367 43.0359
1 4.17787 37.3757 28.6634
1 3.94585 35.9475 19.17
1 27.6923 11.7814 8.57466
1 11.8284 30.2282 23.8464
1 20.2785 5.41796 46.0861
1 0.309631 2.28984 46.1248
1 2.24846 24.9089 37.2792
1 13.972 23.129 12.3224
1 18.8522 11.1696 3.47188
1 27.4167 27.1092 32.0807
1 40.2017 0.651533 24.7221
1 10.4836 33.6051 44.533
1 23.1541 38.4477 13.7592
1 25.26 44.6057 45.3831
1 43.873 46.5683 9.94589
1 12.6545 43.5152 43.2483
1 19.0447 15.9915 48.8973
1 11.5818 24.2255 29.666
1 46.9293 42.8283 38.3375
1 48.0687 16.2676 28.6394
1 27.8657 47.0827 44.6113
1 38.9163 38.6226 38.8691
1 10.3102 7.19477 3.40641
1 21.4896 46.2008 11.3479
1 26.7059 5.34931 34.4547
1 23.4096 33.0589 36.9587
1 47.5394 5.36363 18.5215
1 15.3441 13.4025 27.7626
1 35.0463 33.8463 35.133
1 38.7063 28.5051 25.1946
1 7.62753 18.1815 26.1143
1 22.2225 18.1897 6.32489
1 13.2477 43.0237 26.3425
1 11.8691 19.8101 4.96088
1 30.1366 36.0806 2.50596
1 29.1701 44.1002 31.3181
1 36.364 45.2982 32.7819
1 21.7779 13.7456 26.5546
1 44.2358 39.9859 29.2175
1 4.776 28.7164 14.0399
1 43.3642 17.8792 24.0907
1 35.7516 36.5978 38.3379
1 36.6017 27.4853 7.81493
1 2.17835 45.5902 44.4712
1 4.87452 0.527941 28.8042
1 9.38124 47.1585 22.1047
1 15.8568 40.8821 43.2571
1 16.8155 2.60072 40.6445
1 47.246 26.5304 12.5839
1 13.1562 3.64574 38.2686
1 48.3462 14.3034 13.1538
1 47.572 21.1609 46.0724
1 39.1322 10.9112 6.5085
1 15.3293 43.3138 7.36603
1 14.8924 2.05274 46.5392
1 25.5817 25.7379 25.5942
1 7.54706 10.1115 43.1709
1 23.3737 47.2666 5.83829
1 31.7082 27.6219 21.2865
1 18.6593 10.2639 26.9758
1 9.45615 1.56243 34.3222
1 30.4121 10.3076 21.3088
1 11.4598 27.0775 36.5743
1 28.7937 19.7288 24.6944
1 44.8017 47.5408 -0.00476938
1 25.6475 0.965482 21.5431
1 37.1774 30.9729 36.9612
1 4.26655 32.9278 5.32309
1 3.1377 33.8183 35.3998
1 19.4355 0.921562 45.9157
1 6.90232 31.0107 44.1559
1 33.9942 48.2496 12.0385
1 15.8589 10.6502 48.8633
1 34.056 9.86977 28.9469
1 19.7448 39.3634 18.7839
1 21.5854 24.2696 44.9114
1 46.7856 35.5149 19.3803
1 33.506 9.28574 17.7813
1 20.4774 43.8306 16.9874
1 11.6245 35.1504 23.0971
1 31.0077 1.64435 35.9566
1 21.3349 41.3028 17.0876
1 34.5016 42.0318 42.0827
1 46.7152 5.82817 48.8877
1 10.1661 43.4292 11.8901
1 48.6539 17.9626 17.312
1 31.6406 49.6642 7.84053
1 42.9291 42.2841 36.2754