4096
 Atoms. Timestep: 2140
1 33.7168 23.1811 1.76681
1 49.4693 2.85117 47.53
1 43.3028 15.0749 19.2236
1 24.2789 7.34195 17.9632
1 19.6308 25.6166 17.9747
1 44.847 6.22497 42.5804
1 47.3586 15.5873 21.6689
1 46.5388 40.4832 35.8149
1 19.1147 38.6889 13.1299
1 8.26496 39.8099 45.2241
1 47.8269 24.1716 35.3148
1 17.3777 27.015 0.083698
1 9.11538 35.5647 24.1703
1 19.121 19.5633 4.98565
1 40.1593 27.4915 4.92879
1 39.1983 44.3139 19.1759
1 46.4435 39.5046 31.1519
1 5.74551 10.6287 13.7616
1 42.1969 29.4396 46.5819
1 37.5732 39.9218 12.0279
1 44.05 45.0509 33.0828
1 10.6639 36.6107 13.8499
1 13.7542 28.4662 19.747
1 0.29861 7.69831 15.6709
1 30.7169 43.2335 21.5684
1 4.42148 45.3996 27.57
1 5.69057 23.874 4.40524
1 49.3063 34.3892 24.0367
1 17.5182 36.6013 14.6587
1 28.6835 8.2428 7.86766
1 39.2509 21.7829 26.0862
1 45.7271 26.4933 11.5037
1 7.78187 27.9688 18.576
1 15.3258 10.7714 21.7103
1 21.6068 48.4316 43.4488
1 33.1664 45.8834 9.28529
1 28.122 30.192 2.30468
1 49.1167 2.54258 41.8666
1 15.1426 6.06197 22.2632
1 13.5557 17.1488 21.3127
1 32.5625 19.4149 11.7008
1 31.6256 28.2151 13.6207
1 24.6753 47.2237 22.0382
1 36.6092 44.527 40.7348
1 38.9633 47.699 17.1351
1 49.6411 40.201 24.6912
1 16.1698 24.7565 40.3323
1 37.8669 29.616 35.0839
1 4.46508 19.3112 6.52978
1 3.89788 40.501 47.9962
1 11.3964 2.70183 14.742
1 30.603 20.4741 43.0876
1 8.27736 10.726 43.5203
1 43.3814 14.3633 47.9733
1 37.9436 2.30143 38.8447
1 2.24067 44.106 21.5554
1 31.411 32.4619 18.1165
1 29.0079 33.1135 45.0463
1 38.4668 12.3899 41.4144
1 21.2247 33.7971 13.252
1 18.6432 29.6091 27.3761
1 17.5781 47.1792 28.6544
1 5.45412 43.9761 45.9688
1 14.9336 31.1764 33.033
1 9.84101 17.6238 49.3837
1 49.6155 35.2475 28.6992
1 18.3433 48.6362 26.2515
1 11.1229 14.3004 2.85636
1 34.9873 19.106 38.2133
1 28.1743 4.67836 37.2667
1 12.5114 38.9332 27.5282
1 15.0905 17.3474 18.9895
1 37.0632 27.4267 16.127
1 2.22681 5.39357 2.01599
1 29.9566 23.0746 12.6686
1 48.3853 11.4591 46.789
1 47.9395 6.70607 36.4868
1 21.4589 45.0169 45.7152
1 17.9002 49.3087 34.2753
1 47.512 8.17621 22.1088
1 37.6912 42.3287 20.1864
1 5.29709 3.36057 41.1113
1 44.1013 6.59764 34.8854
1 5.84131 5.50473 34.1938
1 34.1851 16.9112 40.1018
1 27.392 23.3961 5.38558
1 27.211 49.3622 38.4356
1 37.3486 18.3626 9.93076
1 28.1044 7.33258 45.1458
1 49.3463 23.9204 11.3704
1 17.6188 15.2452 21.4829
1 44.2178 48.4305 23.9297
1 48.888 6.2125 39.4215
1 28.0888 3.67585 3.71619
1 37.36 44.9207 44.4048
1 26.1546 5.9422 31.7171
1 30.3921 49.2784 3.48142
1 22.5113 8.55826 29.5875
1 2.39895 34.2472 27.6161
1 32.8713 26.4225 10.3587
1 25.494 32.7534 38.3861
1 8.65658 21.5577 4.61779
1 17.7736 36.2439 7.63246
1 23.0219 8.11192 48.2273
1 1.30067 44.0246 12.1254
1 11.4291 18.0469 4.09007
1 0.516456 1.07646 0.123399
1 2.02972 20.8114 5.61698
1 45.3911 9.64061 20.7246
1 8.41388 45.2085 49.0078
1 23.6237 11.0382 22.5465
1 28.2208 38.9711 36.9646
1 29.9521 15.1451 24.4035
1 2.77987 25.1268 44.5437
1 6.16124 4.66241 45.5629
1 21.3805 7.60675 42.1086
1 32.7033 1.49468 39.3067
1 0.862699 48.2033 46.4656
1 43.3547 47.3253 43.0639
1 21.8 18.7235 13.7981
1 20.5307 8.38374 16.0713
1 36.4027 48.8704 44.9027
1 7.96567 16.3135 28.2985
1 30.3059 21.1779 7.83277
1 18.1089 34.8847 21.4562
1 4.99252 34.9448 9.12941
1 5.07638 21.2299 44.1267
1 36.1731 29.995 13.715
1 12.2696 38.5658 43.4218
1 29.2096 26.961 44.8007
1 38.8923 19.3385 36.4727
1 45.5668 24.5558 18.7922
1 43.9768 49.1609 17.6153
1 1.06606 46.7667 18.0084
1 2.28558 13.4994 5.37896
1 12.9044 25.2567 10.7689
1 47.9963 3.64278 24.9498
1 26.5091 29.3243 10.8515
1 3.2214 48.6831 6.83596
1 12.4509 37.5552 48.975
1 2.83562 41.5262 45.7348
1 13.5945 39.9788 39.0405
1 28.0737 6.5509 2.80519
1 4.43705 8.64938 15.5151
1 9.85497 37.8676 10.7223
1 42.2238 46.3097 15.6292
1 23.5574 39.8998 4.44363
1 37.6614 44.4687 3.56515
1 14.136 39.264 29.5901
1 44.2307 19.7638 48.7484
1 44.6397 1.37022 10.9703
1 18.9403 33.958 32.9858
1 36.4588 49.5982 19.2889
1 16.1872 37.4863 29.3095
1 3.17681 13.0667 17.0827
1 15.4122 10.1351 14.5844
1 25.1267 16.0937 48.4796
1 23.8863 0.756426 29.2404
1 5.815 31.3711 6.85577
1 5.01713 36.3636 41.5741
1 23.2189 45.1889 15.5865
1 39.9051 44.3886 29.8825
1 40.7957 32.3343 32.9998
1 46.1814 36.7206 43.8107
1 47.2529 32.4125 37.1068
1 26.8116 29.5997 47.3945
1 20.2086 32.7813 42.8555
1 38.8785 24.3022 3.63256
1 5.24854 5.2898 27.8605
1 7.95779 14.3286 0.320113
1 27.173 21.5798 19.682
1 6.49625 11.9936 10.8271
1 22.9576 20.5773 32.1715
1 5.37709 41.6205 6.93355
1 16.1717 5.18738 18.9104
1 9.86747 7.81521 16.4278
1 23.8874 10.935 3.7139
1 13.3641 7.95915 7.69506
1 2.92188 39.5904 41.6552
1 21.838 12.825 3.2585
1 35.1434 30.0491 37.838
1 28.6991 16.6131 43.7083
1 42.5912 47.4491 40.6702
1 11.6295 19.9906 47.6441
1 27.3306 9.12319 22.4202
1 48.8398 31.8769 6.7245
1 20.4193 19.8303 16.3337
1 46.2331 42.5892 16.8243
1 6.10335 46.3468 38.2478
1 39.2719 45.7658 34.9176
1 44.11 32.0097 40.2358
1 47.5937 7.5553 31.1739
1 43.1292 41.0487 39.0109
1 45.4482 23.2048 31.5232
1 6.14806 18.5369 41.8906
1 4.99476 10.0215 3.88696
1 17.3958 46.7018 46.0717
1 25.3625 43.0711 32.5186
1 0.148743 35.0006 7.36216
1 6.93813 18.022 19.0649
1 22.7865 3.67622 26.0104
1 15.324 45.783 28.2764
1 15.2697 8.8065 17.5184
1 13.9386 43.8306 29.3754
1 23.4817 17.0046 31.2196
1 29.2521 22.1617 41.4669
1 23.9007 32.523 31.7672
1 7.19968 45.7286 9.72122
1 48.3093 37.473 14.4496
1 10.1461 5.5573 13.0468
1 10.3188 0.287699 32.264
1 5.04737 43.3845 20.5709
1 5.69524 11.9801 37.6744
1 5.90284 29.9533 11.7184
1 12.0104 29.8507 12.5529
1 36.737 18.3012 35.198
1 43.4599 19.423 20.6311
1 2.02013 47.425 30.1207
1 26.1352 29.4046 17.5419
1 1.58118 41.2493 28.2239
1 48.0803 22.8542 32.6996
1 2.92396 8.68831 23.0037
1 39.4857 32.4269 49.3562
1 39.6052 33.6585 13.6131
1 40.9299 23.6583 24.6344
1 0.274017 42.1238 45.3057
1 0.0965882 13.8507 16.0103
1 30.2497 25.1009 23.4382
1 21.1353 5.19265 24.3926
1 44.4969 5.83789 3.49565
1 24.8151 7.29775 5.07922
1 25.0179 38.4868 43.3542
1 6.89237 15.7242 7.0304
1 13.0836 24.1913 14.6234
1 19.8294 7.00133 10.1956
1 26.7449 43.0486 13.507
1 40.4345 29.7623 34.6601
1 7.64474 35.7177 44.6818
1 20.3673 27.4318 27.037
1 38.3016 3.05553 49.3896
1 20.3092 40.7144 8.8548
1 47.3761 15.2837 47.5007
1 36.1897 43.6203 30.9934
1 47.6181 8.16829 41.0064
1 48.3239 22.6004 39.2217
1 25.0865 37.6793 4.74734
1 12.9489 6.99446 17.7897
1 6.16125 19.3608 12.3974
1 8.38325 14.4341 21.0219
1 21.69 32.393 27.4174
1 11.8045 35.9187 10.9737
1 27.758 34.0526 32.9156
1 2.3794 46.5112 5.65649
1 34.7443 20.2583 8.35572
1 16.037 40.0022 9.19487
1 3.29815 8.07324 43.6264
1 1.72962 17.2591 36.8102
1 18.2866 43.7354 1.44257
1 0.779522 37.8943 26.6047
1 14.6357 19.9467 15.4817
1 1.51366 38.1371 43.6868
1 22.9551 5.24567 28.1221
1 46.1521 30.1829 39.9731
1 25.1622 49.4958 19.218
1 4.5282 25.3463 42.6868
1 4.33393 10.9144 41.6585
1 41.3156 19.3778 23.0406
1 41.3965 21.7358 32.3004
1 42.8118 10.3385 22.6844
1 24.8828 1.85243 13.6417
1 46.6513 13.5811 7.38539
1 14.4485 3.59825 31.1927
1 6.11428 22.3149 39.1868
1 12.2803 19.7064 9.69767
1 46.8858 11.2805 16.8832
1 28.6218 40.7208 12.4472
1 18.4741 44.5608 25.584
1 32.8632 16.3872 29.8672
1 21.826 40.4721 40.8667
1 27.923 46.7153 26.9545
1 48.0704 46.676 17.1805
1 42.3177 23.3301 12.7075
1 27.4977 13.2726 32.032
1 21.5228 12.9857 21.0985
1 15.1206 11.1577 11.2152
1 4.53704 9.76675 31.9216
1 10.8968 8.66084 13.9275
1 46.5969 46.1771 33.309
1 15.7455 18.1205 25.8638
1 49.2346 45.2901 24.9346
1 27.5814 18.0292 27.4805
1 29.3859 24.4154 30.0975
1 28.1439 7.14606 42.1415
1 12.6288 23.3285 41.8544
1 47.0679 12.8811 25.1681
1 27.2184 21.9361 10.5168
1 48.0424 44.1078 7.43465
1 34.5015 35.6935 44.8533
1 21.2257 32.3537 33.3672
1 44.6403 48.5517 26.5441
1 5.25338 29.2038 8.14808
1 36.8493 25.7522 4.83265
1 47.096 8.90117 12.1796
1 46.9128 4.81529 28.6229
1 4.1085 48.3402 2.25737
1 38.7089 27.6143 28.3755
1 37.3493 40.1963 0.710343
1 45.7075 41.718 39.1587
1 24.0204 34.5422 10.9652
1 42.0649 43.5973 46.8813
1 17.4023 27.0314 21.9436
1 1.91818 3.9786 42.1053
1 4.383 44.3299 35.6308
1 15.2659 24.0569 25.1452
1 42.0186 38.7372 24.507
1 48.1781 47.6423 43.0579
1 39.681 5.84641 32.2424
1 48.5156 19.0815 42.8612
1 33.1521 42.2773 25.5936
1 37.2307 14.7012 34.2266
1 34.4395 33.0689 19.9701
1 8.2592 27.0136 40.9655
1 24.4185 5.71132 2.36874
1 18.2948 40.1985 32.6393
1 43.8082 41.18 3.95051
1 25.5623 7.12104 48.1157
1 41.1199 45.5989 6.10788
1 45.6347 12.7607 43.5186
1 46.7184 2.47941 13.9241
1 34.4532 17.4479 42.8945
1 42.1252 6.51856 42.6968
1 23.2872 32.5691 0.371096
1 27.4615 41.6166 18.9999
1 33.2911 48.0766 32.2094
1 41.5623 11.604 18.4837
1 7.50346 6.42926 3.23325
1 25.7533 33.7623 29.1659
1 8.9243 2.57749 42.5385
1 7.02037 26.2326 16.3901
1 42.8883 27.0849 7.80269
1 44.671 35.2789 27.6454
1 10.4612 8.13333 38.1153
1 39.0708 25.1591 0.644234
1 17.3868 14.1119 9.00784
1 48.8333 23.9261 3.92084
1 6.91985 46.7559 47.8704
1 22.1446 7.30818 8.33144
1 40.5794 10.4738 16.3466
1 9.87852 41.9185 18.7465
1 37.1224 8.90432 42.9081
1 16.6749 11.7472 31.3417
1 9.4618 34.9908 34.0643
1 5.54082 4.04052 5.81198
1 14.6223 23.0677 37.2568
1 32.0515 16.4774 18.317
1 43.3574 7.74373 30.6443
1 35.0163 32.8666 42.298
1 13.2228 16.1207 5.59008
1 15.318 34.3244 37.7252
1 1.8636 40.3782 22.4945
1 25.5911 9.52804 13.9504
1 4.33302 30.4595 34.1738
1 13.0701 5.66628 20.1187
1 4.86722 43.2773 38.0904
1 48.8784 33.7552 30.9307
1 40.4582 16.5614 27.7437
1 22.3171 9.20758 19.826
1 40.402 9.05287 24.5091
1 46.5319 4.74269 20.1121
1 32.9032 47.5271 47.6457
1 42.7202 34.2933 25.7899
1 3.18648 1.85586 49.1375
1 4.62935 48.6348 21.3606
1 45.6925 33.8094 46.6743
1 9.44419 20.1177 0.363683
1 37.3771 5.5947 33.5736
1 5.21594 27.2459 23.3334
1 26.9382 34.8983 22.2362
1 4.66016 37.5282 14.0991
1 34.7473 48.8881 13.2759
1 38.2947 46.8772 19.6217
1 5.13474 12.4599 22.6791
1 36.5864 9.39228 30.4954
1 47.2404 36.3649 18.8395
1 22.5543 40.9399 15.0209
1 39.0295 8.83214 29.427
1 6.68413 1.14233 42.0983
1 45.1221 30.4965 12.6545
1 14.6315 48.409 10.2836
1 18.0459 26.5021 36.1345
1 9.71395 45.9629 37.1585
1 32.8649 0.519475 18.4588
1 7.00106 42.992 8.97741
1 21.1703 48.9387 47.5954
1 11.2259 5.49981 33.4859
1 37.9182 0.913476 14.0679
1 33.1098 37.1981 15.128
1 40.3618 14.3277 26.2243
1 38.129 5.45372 26.0949
1 40.5607 22.3729 39.5656
1 42.6621 0.632847 1.92722
1 33.1864 20.208 39.9138
1 12.458 10.8429 41.3295
1 41.9983 1.45476 42.6161
1 5.17031 36.775 11.5902
1 30.831 9.21174 29.9437
1 49.0065 19.6377 28.7775
1 41.8202 25.0123 34.5797
1 43.3461 24.7725 21.7596
1 8.71434 39.0313 13.3307
1 15.5122 32.6695 19.2173
1 26.1584 28.7114 14.7578
1 22.3356 48.1899 25.4602
1 10.127 22.3451 15.8551
1 25.1948 37.003 21.3779
1 1.21176 18.0713 5.41747
1 28.5737 2.67667 12.8221
1 40.9736 49.2787 36.3988
1 20.9091 45.0125 0.59483
1 48.1694 49.2136 16.125
1 12.0073 16.4575 35.4565
1 22.4175 14.2196 27.9707
1 45.8548 13.5621 0.638789
1 13.9798 6.12089 29.4642
1 17.4033 3.90777 44.2479
1 24.3879 32.0918 34.7292
1 22.9925 33.8039 29.2419
1 28.4139 16.5984 6.21302
1 12.8817 38.2823 14.9463
1 8.86949 10.1841 35.0625
1 21.8427 3.16156 44.0249
1 3.82078 19.1562 29.7545
1 48.362 37.1674 47.5026
1 32.0073 6.1884 6.39939
1 9.97848 41.9957 28.9946
1 3.00301 35.0759 3.01888
1 32.6282 11.7235 42.8605
1 18.8732 18.985 37.7338
1 47.3885 25.9141 1.91898
1 3.38482 34.2641 44.1571
1 14.6541 32.9342 40.1944
1 9.6897 30.7749 15.365
1 14.0735 28.646 36.3151
1 17.4584 6.10497 42.4116
1 37.2508 1.04579 48.1409
1 33.3387 35.7603 11.3048
1 8.35986 19.2251 31.612
1 27.172 44.2343 10.99
1 46.922 29.0954 11.1314
1 26.5075 15.2786 37.3464
1 37.9128 41.2847 43.748
1 15.0505 7.4072 42.3927
1 3.62632 36.5249 33.6794
1 19.1335 4.71106 28.897
1 24.434 26.7285 27.8943
1 43.1801 6.1527 21.7185
1 3.24356 10.8825 26.4084
1 44.2961 24.6615 15.2674
1 2.74248 10.2477 8.86982
1 22.4882 0.98629 26.9883
1 40.9795 26.8167 26.5146
1 15.6016 43.1581 48.0403
1 12.5378 48.4625 15.4552
1 32.1148 25.5083 35.681
1 20.1369 22.7025 31.5589
1 35.4437 38.2166 4.34016
1 12.3128 13.0023 31.446
1 11.2152 28.3273 16.1322
1 2.81003 37.9355 10.1002
1 23.5674 9.46915 24.8532
1 46.7246 27.0361 42.9771
1 16.266 0.341704 24.9207
1 9.95894 32.807 16.9811
1 28.2567 13.9417 17.5416
1 32.2973 20.9618 47.8502
1 16.0916 47.1427 42.523
1 19.7227 1.10037 26.8879
1 34.7835 24.4893 7.23423
1 10.6511 15.4893 25.4565
1 12.9221 31.1392 15.9875
1 46.773 22.978 14.229
1 10.9256 43.067 41.7599
1 9.82103 22.7454 39.3683
1 6.23826 31.1752 38.5097
1 10.2916 2.79518 11.7555
1 31.2939 40.3684 48.6088
1 36.6762 32.6388 22.1483
1 26.6024 18.6753 48.5156
1 1.27846 11.6007 24.8121
1 10.5339 37.5515 41.625
1 2.42625 0.0316941 42.3056
1 3.61901 36.7793 45.2845
1 1.45143 2.20203 29.5553
1 32.418 15.3045 25.0149
1 20.1359 48.9192 35.2514
1 6.06377 34.203 13.5975
1 7.51789 27.6492 1.27676
1 34.4783 34.5771 31.2371
1 13.0933 5.3467 41.8723
1 16.0776 4.10585 39.0378
1 2.22713 34.0637 31.3418
1 45.2556 40.9069 14.1857
1 30.3 12.0388 17.4894
1 11.0539 34.8665 8.0774
1 47.1191 30.2619 8.78019
1 18.4208 36.7332 2.76546
1 22.1447 20.6753 29.1545
1 23.9429 14.0276 13.5805
1 25.5225 36.2237 41.988
1 19.9775 47.363 45.5629
1 23.6357 45.6224 40.5217
1 41.4974 47.0691 20.1861
1 30.8976 21.3934 29.161
1 6.85267 1.58241 2.38818
1 3.54797 36.8307 7.56108
1 25.5566 43.8366 0.398238
1 18.0997 3.56006 16.6536
1 27.1298 20.5785 27.3547
1 0.752731 5.19123 18.522
1 9.3119 45.7008 17.2566
1 37.7512 20.2951 33.0628
1 39.7618 18.5372 17.3326
1 10.3275 7.33821 44.5455
1 2.33052 3.07033 11.5358
1 37.0432 1.96915 23.647
1 36.071 27.111 23.7421
1 19.1718 29.5254 5.61696
1 38.2004 47.3608 43.677
1 3.71278 30.5437 14.4549
1 27.8302 20.5574 23.4776
1 27.7926 27.3393 18.1002
1 48.5088 39.7677 13.1024
1 13.9455 31.4217 3.80414
1 2.57577 35.4002 23.4555
1 48.4657 40.4895 47.0128
1 43.9648 46.2905 18.1178
1 24.3322 12.0304 49.2838
1 31.6171 32.8016 4.72666
1 34.1997 11.4438 40.1988
1 7.65331 42.7199 4.95534
1 41.3351 16.2161 12.2081
1 5.1051 16.7499 24.7801
1 11.5217 21.427 28.3861
1 28.2926 41.0498 35.8115
1 4.92706 18.5973 27.1459
1 5.62009 43.2503 23.5102
1 21.4112 17.4253 20.1212
1 38.1559 21.1776 6.30429
1 27.5346 17.5691 20.4578
1 11.6248 21.6541 6.49952
1 45.373 35.5797 37.266
1 21.7051 37.3893 15.746
1 41.7673 42.4917 5.92056
1 39.4099 9.59739 43.6108
1 37.7766 17.533 22.3481
1 44.8499 18.1954 29.0658
1 26.679 14.7287 11.1989
1 37.6226 16.6682 43.9533
1 1.91809 7.33666 48.4375
1 22.1965 16.1929 14.8657
1 40.1186 44.7312 8.93764
1 27.4606 9.35172 25.1327
1 29.4382 33.4993 37.8033
1 38.8447 46.4747 39.2844
1 48.0931 20.3535 31.3434
1 7.54218 46.2585 35.9209
1 10.8819 7.06732 21.7643
1 10.4689 16.0357 28.0312
1 47.5058 44.2725 37.3817
1 20.5312 15.6953 18.4594
1 10.0298 48.8175 7.98035
1 26.9805 0.339585 0.370032
1 34.2696 29.0071 3.40721
1 0.649137 37.619 6.3518
1 34.7789 36.6793 33.2379
1 23.7605 17.9775 37.0123
1 20.9155 12.3685 41.7727
1 15.2344 19.0217 43.0319
1 6.61141 13.662 27.2252
1 -0.1061 29.5805 5.94059
1 41.0122 49.5446 5.90413
1 12.2397 3.30056 35.2217
1 10.7344 6.03494 10.377
1 14.9906 29.6093 44.424
1 9.12083 8.44619 11.9026
1 33.7956 45.7077 25.9566
1 48.6631 38.6166 32.3792
1 22.0223 6.10058 33.1961
1 48.0596 8.17604 4.81623
1 1.81235 33.9586 15.2456
1 33.3709 14.793 12.001
1 45.7336 48.6429 10.308
1 6.85378 1.52226 5.18867
1 21.5923 40.816 19.5777
1 11.4252 48.5398 42.7543
1 21.2214 23.0057 25.8182
1 26.2339 25.5757 28.8902
1 28.3914 9.34974 40.0956
1 47.3586 29.5929 37.7215
1 31.5847 29.5741 18.4073
1 17.3322 2.22194 7.91403
1 44.1114 10.8602 18.4536
1 41.0791 46.3962 46.8442
1 19.4488 39.1841 26.4076
1 8.77482 33.947 29.0544
1 42.8089 41.6497 35.0957
1 25.8404 43.4607 21.1535
1 40.6216 4.15362 42.9536
1 33.5232 41.9773 5.76365
1 12.154 21.0393 45.0341
1 27.8212 48.1232 11.5693
1 13.3209 0.563389 13.6147
1 10.183 33.7374 45.6473
1 2.19903 18.6063 22.139
1 44.5458 38.9778 48.8274
1 46.2687 3.9572 41.6003
1 9.10151 21.7628 19.5404
1 13.4843 6.2779 35.3926
1 11.9533 31.5834 49.2859
1 29.1526 39.8047 42.1777
1 6.81854 44.8559 17.1635
1 42.9423 6.72129 49.0662
1 38.7477 31.2309 9.49874
1 23.0704 38.7897 18.28
1 45.6533 10.3831 36.8355
1 35.2866 44.5918 10.779
1 12.3673 45.8735 33.0558
1 7.25789 11.5638 28.8824
1 30.8711 42.3579 46.7804
1 14.912 26.2546 29.5849
1 20.0297 35.5747 46.3665
1 43.2922 31.7953 36.2994
1 30.4383 11.8271 40.4875
1 47.0846 19.0243 6.44997
1 32.4432 9.93046 11.3743
1 30.1604 13.1105 46.3569
1 28.3302 48.2739 14.1433
1 8.60642 5.24664 8.52322
1 32.4485 31.36 22.665
1 15.695 13.9154 47.6056
1 40.2841 3.58439 47.8306
1 37.9673 6.04565 1.99655
1 8.16591 12.0446 39.0471
1 39.9344 19.7274 45.8394
1 27.1236 38.896 6.40511
1 42.3008 9.90122 12.2956
1 13.7774 48.8957 0.814679
1 7.1897 16.2539 22.6073
1 14.9492 45.5711 3.66076
1 27.1917 28.3303 43.5326
1 35.607 15.7689 20.4043
1 38.5455 35.3958 46.0671
1 10.3671 28.6457 18.8719
1 38.3334 9.92339 17.5306
1 4.69543 18.5403 3.643
1 7.21905 45.6149 23.6318
1 14.9658 26.5776 32.188
1 39.644 32.8528 42.1762
1 11.7779 2.32808 4.02467
1 12.8656 1.34206 39.5183
1 6.54156 26.0482 44.8136
1 27.5595 33.2502 8.63088
1 8.1807 13.9804 34.4147
1 12.2078 38.4877 19.056
1 18.2667 24.7426 33.8321
1 46.5945 26.9601 4.26241
1 41.9168 3.92255 15.0173
1 3.28021 4.55506 20.11
1 0.937805 22.9187 1.67454
1 36.6097 12.4694 36.9853
1 21.6219 27.9808 6.24841
1 12.5181 3.02442 9.8675
1 19.1406 15.142 30.8588
1 38.9029 48.5181 40.96
1 4.24415 49.2351 13.0021
1 18.1902 23.8377 3.52134
1 9.85295 49.3667 49.636
1 0.190692 26.8606 1.90983
1 41.0747 31.5079 4.59627
1 4.57959 40.6629 38.1304
1 44.4526 14.6241 21.5845
1 24.4186 16.0224 5.80038
1 43.657 30.3374 48.5106
1 33.7667 3.32804 29.3511
1 48.825 47.1938 30.1115
1 38.1665 42.4137 48.9483
1 12.1426 11.6222 43.9254
1 18.1323 0.484142 4.26877
1 17.6087 18.6645 9.14894
1 13.4875 3.17387 5.75296
1 6.90606 34.3451 5.31064
1 32.7007 38.8812 45.2893
1 10.1689 9.91387 3.71031
1 11.8473 12.091 25.8601
1 47.6789 31.8975 48.381
1 12.053 29.162 40.0307
1 46.5815 43.8222 21.7353
1 38.852 33.5095 23.5806
1 32.735 37.0882 0.00679233
1 35.1704 8.7396 46.3407
1 30.8474 15.5922 4.97487
1 33.6092 21.7305 10.1961
1 29.4122 15.8512 47.4746
1 29.1065 34.255 29.7032
1 36.0442 19.8625 24.0512
1 18.0709 24.6502 38.1292
1 48.944 14.6203 43.2762
1 31.5909 43.4998 1.79762
1 1.12538 37.002 30.4904
1 30.0298 19.6878 3.78255
1 26.5746 11.0715 2.93183
1 2.973 23.5701 8.81043
1 12.3218 32.7688 21.9746
1 41.6241 34.291 48.934
1 29.0953 13.3191 11.2987
1 13.4112 25.5074 6.53248
1 43.7631 16.6836 45.0128
1 7.45377 18.6802 27.6369
1 2.90736 45.1906 29.3961
1 19.591 31.6918 28.8413
1 35.8869 41.7079 28.9026
1 14.7999 38.5861 33.7446
1 12.9128 49.1659 20.9143
1 22.6058 2.90252 20.5243
1 36.8848 0.0435215 39.9664
1 39.925 47.3969 25.2491
1 45.6148 9.39441 5.22647
1 11.1241 9.73811 47.8514
1 45.2627 40.704 46.5926
1 8.14533 46.9456 7.42618
1 48.7196 9.65719 2.36224
1 5.94906 47.2005 3.88187
1 4.08184 33.7749 21.836
1 0.278268 35.3685 18.1837
1 29.1506 35.776 15.2945
1 17.5609 19.9926 12.4565
1 37.1337 27.4083 12.6949
1 8.66399 42.1213 13.4101
1 37.0598 13.0042 30.3397
1 30.2224 16.2673 20.3403
1 43.0934 37.6984 2.21455
1 28.2995 5.4019 19.3647
1 10.1241 24.2437 14.0155
1 41.8659 38.5012 4.7551
1 5.27255 2.86487 19.5902
1 33.9073 17.3868 10.3271
1 25.2467 45.8692 13.8329
1 32.0419 42.8941 30.5154
1 13.2357 3.09729 43.0077
1 6.53726 36.2419 25.0395
1 43.2881 36.356 41.3203
1 34.5007 25.9486 39.1443
1 6.02642 16.2404 14.2106
1 15.7493 48.8019 4.40607
1 37.1609 17.9179 16.3619
1 1.87068 13.2657 20.3508
1 27.933 31.4371 20.5092
1 19.9756 10.937 4.17443
1 19.1881 41.8563 34.4054
1 23.6355 19.5623 43.275
1 31.9138 39.6116 25.5877
1 13.0023 40.7664 36.1971
1 40.331 37.0256 11.4808
1 2.96206 33.0229 18.3423
1 40.393 30.017 15.83
1 6.13913 2.40975 24.8149
1 47.1717 32.1891 34.5612
1 46.6065 5.25613 9.05861
1 42.2968 48.5677 10.2238
1 3.67198 31.1748 28.2527
1 30.9834 29.1565 23.7632
1 28.6354 14.9345 1.71069
1 34.9759 25.9501 26.4107
1 15.2312 32.6339 35.4766
1 5.91434 44.007 42.7022
1 21.8787 9.95461 12.3123
1 8.87678 30.8306 39.4409
1 11.8099 39.5901 9.73198
1 19.262 36.7061 17.2064
1 6.62288 8.3711 48.8836
1 35.1033 6.16805 12.251
1 10.3183 45.2912 9.79086
1 12.2622 22.522 48.7613
1 42.7796 40.9445 11.4863
1 44.4911 18.3447 17.8523
1 9.80604 40.2018 7.50235
1 7.31205 48.0411 40.5291
1 46.0338 23.4295 2.30029
1 7.51963 6.11034 31.0166
1 31.4118 37.6552 5.54054
1 17.2414 11.4784 35.0192
1 22.6222 48.752 19.0827
1 26.9025 1.04949 6.52503
1 12.741 41.7677 11.0673
1 23.4745 22.5013 27.5749
1 8.44576 9.93459 9.69342
1 17.9222 12.055 13.3602
1 24.7528 24.9312 32.665
1 3.01417 39.5971 2.44811
1 15.0928 12.2826 6.63088
1 24.4383 5.76117 11.809
1 1.2662 27.5508 9.47596
1 25.031 47.7052 11.418
1 40.5099 41.6618 14.7531
1 28.7848 48.6126 30.3152
1 49.4376 38.9228 28.8195
1 44.0575 6.44803 24.5897
1 30.3323 3.46193 15.0815
1 25.4603 11.7259 27.7568
1 15.3903 43.6382 7.02241
1 21.1416 10.8166 30.9515
1 38.5985 37.7799 8.08284
1 10.1808 31.9614 23.5077
1 0.639886 42.8366 25.8385
1 27.3728 12.4717 40.4329
1 8.84814 43.9029 31.7797
1 0.77121 42.029 35.662
1 8.17283 9.98736 40.8713
1 7.18535 32.4063 11.7312
1 12.218 31.5369 32.7825
1 5.18932 44.3368 12.7224
1 0.984735 30.8672 18.1051
1 4.01895 2.14709 13.2829
1 35.4574 13.4026 16.5141
1 44.5431 3.33213 25.0902
1 8.13226 8.42876 44.8276
1 1.81747 44.5165 34.9856
1 18.1 37.4201 36.3584
1 7.23102 11.3494 16.2069
1 10.0527 27.5977 38.3005
1 49.1892 11.8814 12.9474
1 24.9856 43.091 28.4827
1 24.962 5.14536 6.83447
1 8.19681 3.73865 31.6015
1 7.18388 3.59901 9.95419
1 36.1372 5.96152 3.99243
1 2.34582 7.37302 6.98349
1 33.8033 6.44786 24.5121
1 46.3832 0.605175 27.6014
1 29.2175 7.94527 15.57
1 30.1906 5.77326 8.4285
1 6.6827 47.0001 27.5449
1 35.9783 43.167 26.3608
1 46.4869 2.09731 49.6794
1 24.9465 2.77692 33.277
1 12.0157 9.36876 45.1968
1 28.3241 19.1988 44.778
1 37.1914 36.0364 5.812
1 44.5918 34.0197 41.8981
1 44.6796 14.9772 34.5615
1 11.5089 9.58148 18.3443
1 38.9092 10.3218 22.0367
1 3.54502 23.2822 15.9312
1 31.7721 16.6146 8.76009
1 42.4361 13.826 6.42311
1 11.4472 25.2479 8.54669
1 9.00696 36.2069 27.5559
1 27.0411 31.9047 40.9993
1 29.1039 7.79915 35.2795
1 39.5797 36.3179 23.0967
1 24.9522 17.4527 14.5062
1 33.7933 43.8459 32.5161
1 36.067 22.823 29.9863
1 20.0055 1.60534 47.5072
1 8.09744 0.992579 9.44862
1 30.14 28.6795 37.8869
1 35.7665 32.1598 47.6372
1 14.7334 48.5821 46.8299
1 21.5684 27.5972 41.7372
1 41.602 4.2213 24.0595
1 19.0261 45.8125 31.9008
1 15.9444 41.0421 14.0751
1 23.438 28.5899 14.5817
1 37.5601 27.5834 37.0044
1 25.8743 25.8274 1.87749
1 34.2974 36.7749 7.13504
1 26.8301 43.8058 46.1515
1 13.9933 2.0144 33.502
1 43.6801 15.5083 12.8617
1 49.5108 14.3545 24.0521
1 39.6757 34.8559 30.5765
1 10.8995 46.6316 49.122
1 13.9123 39.2065 2.90147
1 27.5354 34.0689 13.4835
1 20.0872 5.1583 44.5526
1 9.4753 38.3438 38.0881
1 14.356 46.5678 16.3488
1 31.3611 3.28328 20.7603
1 11.0624 9.67336 20.9079
1 25.6106 19.1405 16.3265
1 10.138 48.7521 36.8854
1 33.2106 31.4178 6.85005
1 3.64255 29.2616 31.5662
1 41.2653 12.251 4.5833
1 47.4562 40.1484 6.80318
1 29.3322 3.15083 31.0445
1 35.517 41.8203 47.4532
1 43.9586 44.8155 2.5709
1 5.21564 46.7699 44.8069
1 10.1512 36.8129 4.47109
1 1.73125 47.9782 12.9399
1 42.1561 44.6845 23.9564
1 41.7166 17.3669 19.9176
1 1.15123 30.0939 37.6572
1 23.531 24.0249 48.3513
1 44.3633 26.154 45.1339
1 16.6803 28.8383 35.2799
1 42.4085 15.3058 1.81986
1 32.6854 1.20103 35.1552
1 10.8318 23.1219 3.58015
1 12.3685 12.9362 39.8793
1 41.9859 38.6528 12.943
1 22.3404 35.8251 41.3506
1 22.3739 38.0366 12.9854
1 13.4143 19.2058 17.914
1 21.8627 3.15878 48.2815
1 43.7041 24.5966 7.33705
1 33.8643 43.2817 45.9555
1 18.7269 34.5194 28.5322
1 15.9989 40.8004 32.196
1 14.8438 2.72897 18.3541
1 8.09625 31.1021 26.8239
1 13.2779 43.6338 31.7459
1 17.6279 36.1381 10.4063
1 44.1002 6.3966 17.6833
1 21.851 38.0038 8.10845
1 13.2552 41.0184 7.66564
1 1.41331 41.6361 31.2351
1 3.45468 16.5193 20.8176
1 13.1259 42.9027 25.3365
1 29.8935 46.3139 38.9986
1 5.65767 29.7718 48.5694
1 18.0112 6.55914 23.8004
1 14.3035 42.4452 2.56332
1 41.5994 34.1346 4.8137
1 36.9011 15.1052 37.2566
1 29.1536 25.7606 8.57841
1 39.5278 35.9487 40.1133
1 47.559 11.9529 38.3225
1 1.93079 30.8504 2.02291
1 14.2168 34.9276 2.39966
1 12.0284 25.8286 28.9701
1 10.2735 1.11185 35.025
1 49.2847 26.4522 30.0377
1 4.39842 21.3378 3.15999
1 0.451106 20.2366 9.95018
1 8.67039 48.6505 19.8016
1 17.0901 1.25351 15.4353
1 3.63795 15.8457 13.2947
1 13.0434 31.064 18.6311
1 36.851 31.8511 36.3476
1 8.32973 25.5858 3.23011
1 3.21831 0.426489 17.8921
1 22.7693 28.9837 35.3505
1 10.13 37.9762 23.3824
1 48.363 42.9469 3.6536
1 16.3877 34.0254 16.9601
1 4.52422 40.4366 14.3432
1 39.8314 26.8052 12.4425
1 6.3395 39.3656 47.4487
1 14.494 40.6698 23.6923
1 11.3662 31.7864 10.7209
1 38.8888 20.9159 22.6026
1 35.4014 21.8887 6.52494
1 34.4063 8.01011 3.55881
1 14.7342 37.278 0.40543
1 45.8829 11.2691 7.43881
1 32.1802 13.2089 21.5554
1 14.3433 43.8214 39.1264
1 19.3066 10.2136 41.3351
1 7.2124 3.71406 26.8854
1 11.4163 3.95235 7.44369
1 25.6867 25.5413 14.8994
1 0.47765 30.7685 12.325
1 11.1714 23.8533 30.6361
1 48.6174 21.0719 22.7191
1 49.3423 46.6064 40.8825
1 39.7422 43.689 1.62214
1 44.4127 8.64897 10.8473
1 2.00985 30.2944 4.69621
1 47.5073 8.63549 47.3157
1 1.13128 24.881 25.6766
1 1.33601 15.6192 28.3817
1 43.9065 36.134 47.9827
1 21.1749 17.8052 39.8817
1 6.40324 32.3537 3.63421
1 6.86914 38.8255 10.6047
1 21.2071 5.56621 48.3858
1 44.982 47.2142 36.9909
1 17.6141 18.0278 35.4618
1 40.7277 46.8801 37.1627
1 27.0187 20.7232 6.179
1 21.8171 39.197 33.1511
1 17.6078 47.4357 40.1786
1 33.5234 48.3924 38.3749
1 14.7805 36.1311 13.9616
1 33.7802 27.1742 15.9444
1 30.8253 26.9868 26.0093
1 37.0594 18.7129 7.19609
1 46.346 16.6029 33.0762
1 11.3594 1.81006 21.2399
1 42.2746 18.6709 37.7504
1 46.6804 9.0607 0.377189
1 27.7512 40.6771 32.633
1 48.8136 14.5205 27.3642
1 17.3331 42.2541 36.0314
1 12.4548 20.5695 40.4193
1 33.5098 30.8954 10.1553
1 26.2522 40.6239 45.0147
1 10.816 24.8456 48.604
1 28.6424 42.093 43.9064
1 32.6168 46.1566 39.8063
1 21.5566 35.8405 11.1925
1 32.7263 29.2475 36.5183
1 18.5369 30.0697 3.16705
1 21.5818 31.9093 40.24
1 43.398 23.2243 33.2763
1 1.32979 23.6347 17.5948
1 17.2217 24.2629 46.9462
1 26.6733 23.345 37.5618
1 4.80388 35.9872 37.3958
1 48.9506 48.5688 48.5961
1 9.63594 -0.00543156 25.7702
1 1.09984 17.2443 32.433
1 14.4353 18.0908 47.1835
1 16.5487 13.3318 41.3641
1 41.8181 42.7944 37.3094
1 2.70327 23.2749 32.1655
1 18.8381 14.4169 38.5138
1 46.2454 25.4234 24.0681
1 35.6542 17.876 18.5174
1 2.89588 9.37448 11.3161
1 22.252 46.2725 19.3075
1 7.29309 23.6672 1.37222
1 34.5204 6.16463 7.77282
1 43.9713 21.9027 29.3955
1 10.984 41.7989 31.4293
1 21.4554 33.4696 22.3573
1 1.17337 15.9189 8.41982
1 2.18561 48.2535 16.0859
1 27.1234 3.46724 34.78
1 10.3338 14.27 36.3194
1 1.42262 5.05059 15.7513
1 45.8194 38.2413 24.6037
1 27.2189 4.16607 8.54794
1 18.4004 34.3946 13.2843
1 1.72218 41.6217 39.2055
1 11.7753 2.79254 23.5607
1 35.1884 29.9352 5.61642
1 25.6101 6.06853 27.8016
1 30.1817 23.6437 20.6138
1 47.8953 35.213 45.5225
1 10.9477 32.7998 27.309
1 1.27946 43.2003 3.0958
1 42.0795 49.6204 28.5369
1 42.4041 30.0644 11.5627
1 48.9108 48.4598 3.92706
1 11.1654 18.5841 21.6031
1 15.5287 35.2505 20.5774
1 30.0325 32.9759 34.8002
1 8.88274 6.05786 37.366
1 34.7219 31.4049 24.5188
1 36.8657 33.4898 16.5138
1 25.9207 29.4453 33.589
1 32.7695 32.2474 14.348
1 4.15117 7.7173 46.6669
1 21.8688 8.47548 34.9042
1 18.2057 14.4362 6.41842
1 7.19721 33.539 8.82682
1 7.90852 2.4868 35.3926
1 41.5098 4.33111 27.863
1 36.6789 2.37311 7.02786
1 35.3396 35.7268 28.9254
1 40.1448 38.7488 36.6197
1 13.2668 10.7665 35.5531
1 40.9383 24.754 5.55722
1 46.9401 26.0492 7.01368
1 7.88719 36.3187 30.5463
1 45.6006 28.4579 15.5959
1 46.4333 25.7716 28.2481
1 17.1514 39.6625 3.83019
1 42.326 1.67291 47.1231
1 15.2265 35.5809 30.9984
1 47.2639 16.6299 26.3858
1 38.5168 17.2196 46.3646
1 39.0895 15.2197 40.4601
1 48.2184 25.684 40.9325
1 44.9463 5.03339 12.9858
1 20.3891 47.6699 0.0221542
1 46.1263 3.83727 4.66334
1 25.394 3.52335 25.0492
1 8.25253 14.4265 40.1758
1 35.943 7.94226 49.1814
1 26.0159 30.4533 36.6073
1 29.1469 33.8673 26.3258
1 45.6251 46.5302 27.9807
1 41.271 7.23282 8.86631
1 23.7245 47.6111 0.738254
1 38.759 17.3459 19.535
1 18.0322 48.5287 16.357
1 1.27988 34.45 12.7186
1 20.5823 35.4795 3.57429
1 46.7597 34.9384 40.8478
1 29.832 6.89138 0.486028
1 17.9665 12.5856 46.3377
1 47.9354 3.88264 17.9526
1 31.2299 27.0816 42.3458
1 3.91373 33.5151 49.491
1 28.6071 22.9575 35.6727
1 27.3124 29.2524 40.9642
1 22.6523 11.8709 18.6996
1 27.2442 20.8302 12.9375
1 0.520286 41.586 16.3836
1 45.6023 27.9033 36.7979
1 27.2386 42.4525 7.45981
1 41.6031 0.0235893 19.163
1 20.632 24.8893 38.913
1 44.5387 11.3236 13.648
1 4.72228 33.1562 37.0988
1 48.9563 29.7756 20.3606
1 4.73422 42.7149 0.201512
1 31.2758 18.6312 24.4842
1 48.3497 32.5453 40.4686
1 24.4903 39.4223 8.37699
1 21.5798 24.717 0.323032
1 21.8541 2.35017 8.35885
1 6.39609 8.03397 12.5733
1 46.5039 39.3249 39.9385
1 5.87329 36.4985 47.4873
1 41.4641 36.1253 0.990173
1 25.5606 46.0306 28.5773
1 27.0171 21.0625 1.62692
1 43.572 39.0787 9.23484
1 37.7734 44.3781 22.5505
1 40.2327 31.2594 23.8155
1 34.0455 18.3829 3.83063
1 25.8102 12.6275 23.2623
1 44.2546 13.6131 16.846
1 13.5537 7.03023 11.4504
1 31.1031 14.6582 40.764
1 48.7768 12.8395 31.4737
1 10.6856 30.279 45.1768
1 13.9369 45.4275 10.9564
1 35.5547 16.31 23.6985
1 29.2527 9.2496 17.9685
1 20.3827 4.62886 5.16806
1 3.81925 47.7365 25.7453
1 8.71049 42.7301 43.4519
1 2.6689 42.5625 24.1804
1 10.7007 20.2357 33.2661
1 38.4091 40.3843 27.1127
1 44.8946 7.68172 46.917
1 1.87031 40.2763 5.32067
1 2.16903 20.8024 40.724
1 28.5962 26.75 15.4964
1 19.6454 37.0044 21.3804
1 12.8752 36.6904 35.9457
1 33.7265 22.8264 16.6326
1 15.6586 39.9822 36.1867
1 0.639901 31.5615 9.18049
1 41.0356 25.0368 38.9171
1 31.9266 49.3403 43.3785
1 28.8027 42.2384 0.265616
1 17.2892 30.6076 24.8048
1 22.4682 31.6207 18.087