4096
 Atoms. Timestep: 2400
1 5.11421 29.1325 23.964
1 45.1298 18.9543 23.5344
1 42.8571 7.92029 22.2383
1 24.8982 44.1004 5.79793
1 44.4317 48.2654 21.2636
1 15.4268 42.5186 44.1904
1 18.9783 45.9646 0.527584
1 26.8616 36.8207 23.7706
1 6.58626 45.6632 34.1942
1 37.6048 13.8708 25.7064
1 32.095 17.3427 15.5318
1 47.1227 45.5838 33.0188
1 13.3046 37.3484 12.8851
1 14.7122 9.84815 19.3718
1 18.5056 31.4852 43.3051
1 30.9333 48.6036 13.9972
1 27.0184 0.0333594 44.8174
1 3.63869 19.5104 3.27322
1 19.3503 14.025 24.1667
1 6.57422 22.5578 4.97598
1 46.1668 2.99504 10.9195
1 14.1393 22.3808 2.07058
1 3.22748 34.8351 40.9905
1 1.41784 24.8558 35.3956
1 8.79322 9.19513 39.0754
1 36.8708 38.9583 25.6993
1 2.06635 8.03681 27.643
1 14.1281 5.03149 29.4039
1 15.4024 4.38163 33.2583
1 11.3706 9.20648 36.4879
1 18.6913 46.7023 27.5902
1 13.4151 5.09517 20.2967
1 37.6045 48.6682 21.0211
1 3.4623 30.514 25.3069
1 24.3811 44.8547 1.49736
1 32.9694 33.8094 21.9657
1 20.0301 6.47151 11.9393
1 20.1257 26.1471 4.39252
1 39.1733 34.5352 16.4048
1 48.2054 28.9844 16.6443
1 24.0515 36.2138 22.8516
1 35.9544 39.2383 17.6398
1 49.6813 36.8085 29.399
1 41.4035 48.4151 45.8503
1 6.10392 13.3547 3.20023
1 6.9106 21.9862 42.116
1 33.0601 29.0599 38.2186
1 5.38855 27.8551 16.5737
1 47.8061 3.84007 30.2051
1 18.6118 30.62 9.9072
1 10.4259 48.6331 26.575
1 34.219 21.0797 36.6553
1 15.1675 17.829 27.9409
1 12.4512 20.1979 48.5581
1 39.5415 23.3755 6.9491
1 30.4538 40.0119 29.259
1 35.3095 12.5931 25.6218
1 1.1134 5.49787 43.5977
1 43.1447 8.36222 43.7373
1 23.2887 14.2868 4.66466
1 35.0966 21.9383 39.445
1 9.43306 46.3381 36.8498
1 36.1735 43.7587 47.8689
1 9.83311 8.8569 41.5347
1 31.0733 39.8215 1.54876
1 18.7383 2.3344 15.2137
1 39.1555 15.032 43.9723
1 42.1906 5.54067 23.7404
1 27.309 15.0887 45.9282
1 36.3215 8.02259 3.8643
1 26.7505 13.9398 31.8696
1 27.485 33.0625 31.4743
1 25.5352 1.98445 22.3137
1 27.765 32.1636 4.43626
1 21.5978 6.10686 29.4014
1 18.007 45.7176 32.8291
1 36.4792 20.3901 8.9349
1 21.4978 41.7046 24.3856
1 32.1873 27.1198 13.4205
1 8.28234 25.9672 24.7794
1 38.3803 6.72985 36.3978
1 19.8974 49.0017 31.5995
1 17.5006 49.7848 4.25719
1 9.6454 10.1166 13.1641
1 28.7947 10.8349 21.9277
1 20.2456 39.8109 47.9776
1 16.3926 41.4723 1.62166
1 6.89325 38.2608 2.63382
1 7.72698 14.3093 23.2714
1 37.8614 42.8939 33.3931
1 26.3916 49.5601 22.8775
1 13.0462 34.6962 11.9032
1 41.8089 46.9863 28.2005
1 42.2012 11.9103 17.1345
1 24.983 46.5492 30.3135
1 0.704677 11.7894 16.1363
1 17.2986 0.781629 38.9992
1 10.292 13.5652 40.2197
1 28.5289 6.76602 22.9493
1 6.80681 35.2799 43.3116
1 30.018 27.0028 36.2549
1 35.2391 11.2964 6.43822
1 8.3491 21.1953 6.5152
1 0.976534 44.753 17.0005
1 2.7406 44.425 19.1798
1 38.1805 36.5274 32.5051
1 11.9551 10.1101 48.3628
1 18.5174 48.1577 11.0289
1 42.8026 7.86746 46.6541
1 11.03 46.9736 0.373859
1 38.0135 38.9303 7.52658
1 20.9862 36.3476 25.4756
1 34.4164 38.0401 29.0002
1 0.424764 35.3612 45.6386
1 42.444 34.4413 8.55563
1 27.8149 21.0635 19.3147
1 29.0531 31.2798 44.0908
1 3.62208 13.7668 21.2689
1 4.25421 26.8799 22.2214
1 14.1774 5.79075 17.7229
1 17.3531 22.6574 43.7547
1 33.2293 11.6807 49.2741
1 31.3427 6.51543 45.5187
1 22.7829 36.416 45.0477
1 3.21676 42.7024 22.6161
1 44.6323 16.2 23.1721
1 42.9427 28.2722 33.0144
1 6.10608 17.0681 9.57282
1 19.0644 3.17042 32.9566
1 25.1725 10.9008 0.858223
1 4.08417 44.1139 14.5455
1 27.708 34.0794 39.1995
1 14.9328 49.605 44.5618
1 17.5574 29.7241 4.4804
1 2.74271 6.0157 29.3974
1 49.071 41.8482 9.76946
1 46.5748 10.5152 49.537
1 19.2487 36.9147 23.4375
1 45.8776 2.875 39.5049
1 40.3476 43.6845 20.4834
1 22.9197 11.9053 33.0101
1 44.4874 30.3086 23.5168
1 22.0166 9.23265 2.17365
1 35.7187 44.4021 12.9562
1 37.1369 33.7734 27.6357
1 6.32807 46.2011 24.3538
1 10.3596 14.3437 4.84089
1 48.7075 6.95204 42.1965
1 15.1894 27.9362 46.478
1 38.8003 34.2962 7.10221
1 27.6183 18.1727 1.80462
1 32.152 39.4303 12.7059
1 11.4497 22.3922 22.7789
1 3.52186 45.0607 29.7945
1 4.18028 23.5721 19.6871
1 45.0921 1.07942 30.6297
1 35.7989 30.9696 24.481
1 26.4097 43.574 31.5323
1 27.9469 2.0915 13.7044
1 37.9712 22.0439 2.14491
1 24.666 45.2087 45.7904
1 24.2876 40.5849 16.3396
1 2.5929 17.5726 25.4449
1 34.9419 12.4498 12.3527
1 40.7482 8.97641 13.7884
1 43.1447 39.5247 6.81592
1 31.0456 9.91854 6.13673
1 1.25946 28.1569 24.8459
1 27.0319 40.6076 19.5646
1 19.7461 19.2908 43.2975
1 39.3247 0.0581782 28.702
1 31.4799 30.1418 44.9297
1 27.702 5.92161 31.8979
1 22.1055 30.3501 38.7002
1 27.9234 32.762 16.9998
1 24.1872 30.2079 0.232522
1 16.8444 4.44307 17.2377
1 33.196 49.7143 22.3247
1 13.1503 25.1978 20.1247
1 9.02032 33.0696 39.8395
1 9.81848 15.2492 7.31315
1 21.1221 21.7723 13.4858
1 30.8305 0.289898 39.1869
1 12.3007 18.8064 46.3234
1 10.5508 15.3974 11.2463
1 32.3079 32.489 32.0514
1 25.0958 11.1703 42.8378
1 24.9143 22.5192 22.0495
1 27.7162 43.8426 23.847
1 1.71687 11.2341 10.4238
1 49.2051 28.6764 35.0155
1 14.1059 33.408 39.6261
1 34.3196 20.4465 0.482753
1 4.37131 42.1688 0.70551
1 40.0298 44.8384 18.1266
1 27.5512 3.68964 41.8853
1 38.0123 6.14332 4.69453
1 37.639 27.3361 7.12109
1 34.9044 10.3246 27.058
1 8.35606 15.8299 32.4768
1 20.8213 12.0744 14.3638
1 12.3523 4.05452 4.27069
1 5.57419 12.5275 10.5911
1 1.62334 47.7483 27.6097
1 41.7638 12.7461 46.4049
1 21.1682 35.5407 12.3619
1 14.7426 15.7573 0.369499
1 40.3324 36.9146 10.2832
1 24.4677 5.55057 14.4922
1 32.1895 20.0076 14.9304
1 45.3364 0.913872 25.5076
1 32.7841 1.0187 31.251
1 45.8715 22.9988 43.4793
1 3.97588 43.7956 39.8137
1 19.5712 25.1832 7.11182
1 10.6684 8.5914 22.2199
1 18.3133 31.4448 26.1044
1 24.3643 35.5757 27.1022
1 17.5716 26.5748 2.90816
1 47.4155 46.7459 13.3016
1 23.5431 35.9536 7.6403
1 6.09685 48.5642 4.91334
1 26.2047 8.42597 1.21968
1 16.8058 7.19537 42.3018
1 27.3935 19.5466 11.7712
1 20.5674 26.8364 16.0889
1 26.8628 30.1791 45.0716
1 46.8669 15.3419 10.5563
1 20.9603 24.8681 10.5771
1 17.5029 2.05655 6.06091
1 24.667 20.6109 49.5406
1 31.9562 31.3343 47.6866
1 41.9107 23.5182 16.6342
1 26.5214 7.12179 18.2414
1 23.5962 24.2706 47.9226
1 36.0373 32.651 20.5185
1 12.1342 1.68152 26.2727
1 10.12 2.55695 4.45156
1 2.9281 26.7366 7.79982
1 44.8576 30.9516 45.9472
1 28.1637 11.6626 19.4802
1 19.2464 42.6568 23.1951
1 24.2483 15.4102 44.0805
1 2.75413 9.41528 8.75423
1 10.6278 44.4662 49.2714
1 5.4662 23.2506 27.6763
1 17.1873 33.4002 24.912
1 16.9778 29.0908 44.7593
1 38.7763 1.54863 17.1173
1 31.6594 7.36634 29.8292
1 32.8451 43.9034 49.5728
1 23.6614 33.4713 49.5758
1 45.9143 4.67933 28.708
1 27.2222 21.0184 45.6229
1 0.0657737 21.9177 20.9198
1 11.9067 41.2059 0.976296
1 4.52329 16.7452 22.7549
1 41.9452 17.1253 3.2179
1 24.8482 17.8889 1.06066
1 2.14419 45.7435 39.2402
1 23.9196 5.33307 10.4
1 27.7321 21.0326 42.9336
1 38.9654 5.26814 39.545
1 44.9589 8.44869 34.1075
1 7.40631 49.5179 19.5931
1 2.04246 11.2998 6.7127
1 24.4877 13.8098 16.3087
1 18.2711 31.0253 40.1761
1 11.9868 46.4026 17.0023
1 48.4308 31.9664 44.5841
1 12.9501 49.6537 29.6569
1 37.5632 9.82281 33.1692
1 37.8725 39.7179 21.7962
1 17.8757 17.936 0.436811
1 10.6245 32.1817 0.228048
1 48.0986 34.5419 2.80969
1 45.0489 45.2113 38.9622
1 28.6429 24.5527 28.4816
1 27.8611 45.2023 40.0711
1 0.920463 33.9147 32.3431
1 29.1913 17.4245 12.1776
1 8.78923 15.052 17.7632
1 37.5054 12.5738 45.9629
1 14.4796 28.9847 30.4259
1 25.8088 1.62401 4.56822
1 17.5022 8.00086 11.7555
1 13.6773 14.2541 2.42088
1 0.106356 48.0033 20.8708
1 47.411 33.4458 21.7273
1 36.7009 36.4942 28.7376
1 42.7256 20.517 42.3741
1 1.69305 26.1814 2.39106
1 43.3667 33.6752 33.9829
1 5.55322 40.4375 43.7301
1 35.3935 19.863 32.5795
1 38.956 39.5628 46.0647
1 33.442 11.8793 21.6831
1 32.2959 26.135 45.2604
1 3.89089 19.5798 23.43
1 38.8516 49.4873 41.8914
1 49.3012 39.0086 21.997
1 7.99061 30.7272 11.3819
1 31.0368 5.08114 24.1124
1 34.9059 9.23691 36.3914
1 6.31113 7.8841 39.3941
1 35.6384 25.1549 9.02724
1 5.08782 0.555942 16.0565
1 38.0532 48.9171 12.4484
1 19.2831 4.86399 18.5844
1 4.9367 24.0358 38.0962
1 15.8407 15.8101 34.3667
1 36.0263 24.2077 41.1612
1 9.50841 40.5507 37.8715
1 42.7001 41.3305 25.1276
1 38.5322 35.2712 24.1795
1 38.2733 27.0737 1.00951
1 20.5415 2.57112 39.1872
1 13.1074 48.7675 15.8567
1 38.8451 23.6228 35.5197
1 11.0174 2.42178 44.4472
1 41.4378 24.0573 13.6546
1 33.2971 24.3831 39.5855
1 47.6356 34.4861 42.2739
1 6.06894 37.0681 35.1342
1 5.49554 41.1809 25.2845
1 46.9949 20.7457 40.6473
1 45.1958 35.7268 34.5397
1 6.96435 6.36472 35.1443
1 38.8258 15.5451 18.924
1 41.6634 5.99812 2.70189
1 32.6286 48.0347 36.3932
1 19.6815 18.5266 10.7775
1 26.482 38.1251 14.332
1 28.3642 42.2891 27.7209
1 32.0282 15.7538 5.07009
1 31.1298 36.4387 6.26272
1 37.6896 46.9452 35.7802
1 0.203515 1.15365 8.26273
1 9.88132 38.4295 32.338
1 13.4972 12.9647 32.3063
1 24.6875 2.20462 35.0019
1 43.7872 21.4909 37.8583
1 3.84924 20.7603 45.4097
1 41.7281 11.945 10.515
1 32.3352 19.0358 37.1942
1 8.42501 6.12127 11.2303
1 2.11928 46.7319 23.9257
1 47.4236 23.6629 40.6361
1 33.769 2.35006 39.9243
1 29.3744 12.5371 5.84061
1 14.1179 49.4053 20.0411
1 29.2531 13.4202 48.8363
1 31.0825 30.7139 14.9176
1 27.2056 26.56 6.9374
1 44.5902 25.4481 42.6625
1 40.052 31.151 33.7723
1 13.4287 19.0452 35.6463
1 10.325 8.3104 11.21
1 42.8906 6.81717 33.9678
1 23.5001 43.3911 8.49068
1 31.0014 29.0787 18.5044
1 48.4567 42.0846 29.8053
1 25.0173 19.6704 42.1941
1 13.6165 22.6172 48.8419
1 49.7888 36.6766 34.0568
1 11.7235 24.2939 0.126637
1 7.76715 0.533024 6.55475
1 37.9658 25.7604 23.9523
1 18.542 20.765 9.68963
1 11.2941 45.7117 20.9421
1 45.4538 7.24719 13.9455
1 33.674 7.13937 42.1012
1 17.0312 41.7758 19.2498
1 29.595 18.9075 3.91587
1 48.2502 32.2076 37.4343
1 44.2018 38.1373 35.408
1 2.05093 30.6655 20.4157
1 33.5213 30.1263 15.9183
1 25.2988 19.2964 46.842
1 3.98431 14.8943 2.04257
1 23.2207 17.3345 27.6108
1 1.88969 47.8503 36.1283
1 42.385 31.8003 35.3565
1 6.75409 48.8896 8.52316
1 21.3976 45.5718 30.2096
1 10.3332 49.6944 47.9657
1 8.15723 15.3625 3.28247
1 46.074 6.66946 25.3575
1 22.3043 18.5579 41.8677
1 34.7285 46.9642 9.95522
1 4.16442 2.12122 29.0699
1 9.12938 21.1829 15.512
1 10.5435 27.8477 28.1394
1 27.3903 11.8067 26.7429
1 2.25526 7.58412 37.3833
1 22.9451 9.82599 38.4366
1 16.7198 44.0928 24.1001
1 20.326 21.2428 5.49303
1 0.296773 8.68927 38.8666
1 46.7608 20.5531 47.1793
1 28.2056 46.3655 43.5219
1 13.0112 15.1055 28.2784
1 33.1297 3.56076 9.12739
1 10.5025 24.6303 2.59979
1 38.5527 40.7991 13.4302
1 4.41053 19.5316 43.299
1 22.2544 4.64886 23.9556
1 36.5844 41.9342 4.8802
1 26.0038 31.6011 9.04605
1 22.1528 22.6057 37.971
1 2.70465 30.7696 11.5539
1 6.48914 3.48883 40.081
1 12.4824 35.1433 5.56075
1 12.7091 45.5442 33.7709
1 34.2578 5.90213 33.0016
1 16.399 3.35989 37.4711
1 19.7559 36.7434 33.1779
1 15.8183 20.5067 47.4164
1 1.73429 37.5268 3.16753
1 3.21102 13.2472 8.80845
1 3.99249 37.8561 22.7815
1 21.1881 15.1527 27.8694
1 28.3282 15.5925 33.6111
1 47.4661 11.4344 16.2157
1 16.83 35.8539 20.9994
1 19.9355 0.275105 2.8303
1 9.63702 10.9488 47.6432
1 22.4835 38.6407 29.1514
1 2.16227 40.0958 18.8908
1 36.5388 23.0808 24.08
1 42.6633 7.41404 28.1808
1 42.8935 3.38597 37.2902
1 31.2141 46.9734 23.6551
1 44.1477 41.5692 42.5935
1 37.287 9.00726 9.68602
1 24.5967 2.7175 1.06919
1 18.7569 12.3225 17.4597
1 34.7345 42.8878 30.2873
1 29.8979 1.93596 24.5778
1 15.1597 17.2305 16.8969
1 7.53923 46.0744 11.8627
1 40.9345 26.3113 19.1557
1 46.3929 12.0441 44.7062
1 20.3035 15.7609 44.8551
1 3.42937 36.1954 36.4857
1 30.1412 20.0119 23.1323
1 46.5825 33.8099 17.1802
1 45.9414 21.3274 20.5683
1 25.4373 10.9767 16.1584
1 31.2839 37.5639 38.8574
1 36.2423 7.37383 29.7614
1 24.677 47.2783 22.5971
1 10.3913 36.1379 31.252
1 10.3637 5.59932 26.5178
1 0.71816 37.5048 26.691
1 42.8804 9.60484 24.3088
1 25.4965 30.0109 22.1751
1 16.3055 44.7597 15.8548
1 33.4662 10.1582 9.97913
1 40.5447 24.3552 24.9877
1 43.8639 38.2575 38.2238
1 34.3153 31.3948 30.1534
1 0.418002 39.6017 7.3697
1 3.62837 0.555757 39.3965
1 16.5597 4.22127 14.5962
1 40.7201 44.5343 28.0354
1 17.6457 28.9959 13.9289
1 2.00126 44.7327 0.350869
1 18.5063 36.1385 16.0548
1 37.2681 46.0172 48.3548
1 31.5049 32.106 40.6814
1 24.5733 47.6215 41.6144
1 0.0930816 33.9004 9.89143
1 30.4318 19.5135 8.76385
1 23.9169 1.25445 20.1723
1 39.7974 26.0817 44.964
1 20.0366 32.5083 33.7389
1 40.359 9.5103 20.6644
1 3.02723 33.2346 21.0408
1 48.7541 5.27953 34.2044
1 0.44663 2.85406 42.0086
1 46.9382 8.71089 5.67739
1 39.1404 9.21895 23.2225
1 5.66468 46.1393 39.3443
1 3.50259 10.2427 25.12
1 31.3136 34.578 42.1002
1 47.6399 35.6249 28.4853
1 15.5915 5.6362 7.33369
1 30.6744 45.7215 18.7095
1 0.963146 41.4483 34.7918
1 17.3352 27.2906 37.5191
1 9.16021 16.9186 35.3689
1 8.33083 34.7327 16.9597
1 34.7412 5.70158 7.82322
1 14.439 30.9072 38.7556
1 18.3803 14.704 34.6554
1 24.5179 4.30127 36.8242
1 2.98861 41.3069 32.5861
1 48.6049 6.3639 39.2791
1 46.2711 2.64474 37.2332
1 29.1202 40.6545 25.308
1 49.1311 39.2525 9.78967
1 16.0187 15.9921 5.7207
1 18.5368 43.5596 36.5465
1 30.6704 26.091 29.5587
1 49.7726 28.397 2.31625
1 1.74465 31.0359 48.027
1 3.7023 3.53415 45.1783
1 13.2047 38.7247 9.59453
1 13.5855 40.9402 32.0364
1 18.3547 49.7992 8.86606
1 21.7371 49.6026 25.8326
1 45.7843 17.1456 44.5661
1 13.5005 40.7016 20.7564
1 32.7171 28.5494 29.4728
1 44.4618 12.0976 46.7496
1 17.0292 19.0355 38.4619
1 23.7863 38.9173 35.2153
1 8.18804 18.5679 38.8312
1 5.99297 7.95868 42.1684
1 37.2775 31.4123 6.99904
1 30.7789 12.7497 25.3012
1 25.044 17.3559 13.6579
1 21.268 27.1398 44.4078
1 47.1432 1.4864 19.2483
1 46.7931 37.2642 17.2344
1 23.775 30.3262 3.99496
1 4.25601 10.5082 41.0863
1 48.5947 23.4001 45.0517
1 28.5566 21.4782 4.67278
1 48.1457 42.9911 32.4955
1 16.5349 28.5273 48.7083
1 25.5691 35.5784 37.8125
1 4.72302 48.0868 42.1233
1 42.4724 46.5923 3.48208
1 27.5977 36.0057 43.6023
1 38.4453 49.1175 44.9364
1 46.6611 33.9635 36.3735
1 25.0232 10.6051 21.2844
1 17.7149 44.2847 28.5449
1 42.158 44.4984 44.2041
1 4.63257 4.34624 41.7549
1 13.4489 45.3994 29.7446
1 48.122 48.9924 11.1955
1 44.528 6.62896 38.1275
1 21.1079 31.7051 27.1579
1 45.5596 29.4036 16.498
1 45.6598 15.2311 17.2385
1 47.7784 7.57791 21.5302
1 12.274 42.1451 22.9105
1 36.471 29.6581 33.6372
1 25.26 46.2967 24.9529
1 5.48231 20.3926 47.5738
1 47.8944 39.4867 2.88078
1 6.01464 8.68567 12.8392
1 4.41691 42.2564 18.3888
1 22.4549 3.22379 12.1091
1 6.22189 0.547638 0.833897
1 0.938824 33.1966 14.6366
1 12.1277 1.4923 39.8675
1 27.2955 9.39749 37.6714
1 6.01037 20.1057 1.70882
1 41.597 24.5328 42.6307
1 43.7645 32.9071 29.6811
1 32.6484 44.5685 24.5807
1 3.72812 30.0052 49.6137
1 1.97736 20.788 16.8032
1 21.2173 1.63638 45.8055
1 0.457913 5.72735 22.5253
1 30.3248 10.459 26.4411
1 35.2263 13.8689 29.5738
1 24.3894 15.1127 1.08568
1 9.00618 0.904415 25.0756
1 9.47681 23.2235 17.4578
1 49.5171 19.2807 20.0881
1 35.5863 34.2048 1.49369
1 12.8811 21.6384 4.55795
1 11.3211 31.2666 4.30773
1 1.08131 48.8928 5.20664
1 47.547 40.2005 33.5032
1 35.0248 42.3683 0.182561
1 27.9846 24.7642 45.7627
1 16.334 21.1965 7.58448
1 13.2377 36.6845 29.8899
1 11.9906 9.75486 19.1164
1 21.0078 1.82658 48.636
1 4.37375 38.9473 41.8166
1 13.694 47.5843 36.3528
1 33.3968 9.74417 7.19977
1 14.6342 11.8683 37.1671
1 0.225806 31.3269 10.8967
1 6.77247 15.6366 7.45962
1 7.3828 19.1088 10.2146
1 48.7626 46.1863 42.5974
1 45.9605 37.1018 39.889
1 13.7205 44.9145 15.4483
1 11.0358 7.75991 16.8298
1 2.51221 46.7651 9.88403
1 23.5085 36.9015 41.92
1 4.713 14.3175 6.56331
1 31.9963 19.248 21.3456
1 27.9996 14.229 15.4974
1 10.8026 33.5321 17.7936
1 11.6889 3.58806 41.592
1 9.27894 40.6171 8.59008
1 42.4885 47.1194 7.64525
1 15.6532 39.4484 31.5727
1 41.7498 14.2391 26.0278
1 8.18423 46.5196 4.96815
1 39.5309 44.614 40.2118
1 4.5354 12.4719 43.0548
1 31.3907 35.1877 37.7056
1 13.9298 5.1654 10.9427
1 38.7478 48.8268 1.42511
1 11.8081 37.5462 47.1462
1 22.7404 36.9986 16.0498
1 26.3636 18.6902 22.9385
1 5.64725 15.3757 33.5823
1 0.818129 35.3794 24.3364
1 17.3771 27.5772 28.602
1 8.81368 6.26972 43.0889
1 25.7027 29.1985 36.7359
1 11.5083 49.4093 44.419
1 41.3587 1.53239 38.6505
1 12.8615 28.5849 42.9121
1 38.3454 43.9499 28.7378
1 32.8639 19.8862 6.93177
1 1.04529 32.237 36.425
1 42.4657 31.5677 7.54173
1 39.4065 46.4506 6.12968
1 44.6479 2.59832 49.0185
1 16.2434 10.9493 23.9873
1 25.1357 16.3201 4.92095
1 1.56282 3.69643 20.8277
1 47.1575 0.491117 45.1572
1 42.6231 6.90488 0.0268793
1 34.3429 32.3206 10.63
1 36.8298 38.5564 34.0808
1 8.21218 31.1405 24.0119
1 27.3828 30.7311 35.1471
1 39.6048 44.0881 46.1148
1 8.84847 24.7805 13.018
1 43.3255 29.9233 26.391
1 10.9212 1.91519 34.2898
1 4.71249 48.6944 13.9361
1 39.7307 8.37462 2.74353
1 20.0306 23.9324 36.5328
1 7.60367 7.45057 22.3938
1 3.88807 2.14435 4.16981
1 6.83613 43.4095 1.35721
1 40.0045 1.54963 19.4926
1 12.0974 46.4109 7.31313
1 8.72279 13.7522 9.7177
1 32.0424 18.9606 3.06945
1 28.7787 40.1856 42.2511
1 39.3695 7.73819 16.2883
1 7.25986 36.2828 39.2635
1 39.3257 17.7484 33.2482
1 3.18268 1.74191 24.3955
1 12.0215 44.2418 26.1883
1 39.1005 40.3324 29.8203
1 7.31114 6.51243 17.8847
1 0.142182 18.9958 29.1638
1 37.8796 0.655903 3.59863
1 6.70479 18.0444 42.0558
1 33.5884 42.6589 43.0423
1 29.0925 26.7775 21.1614
1 4.6302 40.1073 5.61687
1 22.3884 11.824 22.8735
1 44.7336 46.5639 41.4332
1 21.6717 7.94386 27.338
1 24.8711 30.3598 39.0028
1 0.728366 8.4773 3.01309
1 17.0758 7.49464 27.1264
1 46.8407 41.0666 0.294703
1 35.7935 35.4236 42.028
1 12.9276 8.95996 45.2402
1 23.3112 43.9273 24.8025
1 16.9716 22.9434 40.9223
1 7.14678 41.2202 15.9638
1 25.4245 3.86024 5.54174
1 25.3627 14.8631 39.9329
1 5.95087 35.7792 13.7929
1 36.3109 43.1698 2.35922
1 48.0394 20.4211 37.8989
1 44.8676 36.5214 5.19756
1 46.4284 20.2552 44.6536
1 12.2945 15.8179 4.16482
1 28.2643 37.2018 31.6284
1 17.0582 33.1623 6.42857
1 22.7772 40.2352 41.1373
1 45.5261 43.3431 16.7297
1 33.9208 38.7862 39.2545
1 18.695 14.2437 37.2455
1 22.3106 38.2277 8.65741
1 10.2867 15.8158 28.3455
1 8.50284 40.6698 48.258
1 48.7866 19.5062 49.6069
1 0.821252 43.5479 11.3867
1 45.9521 29.033 4.92775
1 2.59203 48.009 18.0498
1 44.8301 5.64195 19.0771
1 7.24449 10.9795 12.5092
1 49.6851 38.721 12.6631
1 20.8281 23.118 41.2391
1 15.2227 21.1449 44.8163
1 15.1086 43.7646 4.26026
1 15.2539 12.1901 49.1457
1 3.41913 36.2208 5.01948
1 7.13567 29.6425 17.0081
1 20.9389 23.9377 47.3053
1 0.688145 8.91489 20.8699
1 38.0837 22.1897 44.4939
1 20.4145 45.1961 9.04732
1 19.2639 18.5498 45.8099
1 1.39181 13.1487 13.5769
1 35.6768 19.1316 35.3765
1 17.6057 42.3684 14.8788
1 9.41338 2.50612 17.455
1 41.8416 33.8017 44.6531
1 4.96119 21.3057 21.4559
1 37.5638 18.1363 14.6984
1 38.0147 15.6601 14.5443
1 37.5632 8.04249 1.02194
1 20.4115 11.8023 33.8452
1 48.2753 39.458 17.1805
1 7.96493 27.8365 42.9818
1 11.089 30.0103 11.7775
1 24.7742 7.7615 10.3978
1 42.0432 15.1951 28.6809
1 46.8227 26.5861 34.364
1 13.7764 37.0227 34.5601
1 41.9663 40.0536 19.2756
1 43.2789 3.28052 14.4272
1 33.2791 2.3444 35.2651
1 11.2816 43.9066 43.3127
1 31.9264 33.3234 4.11255
1 4.60706 24.2645 42.4998
1 9.3321 48.2114 45.8409
1 36.761 4.41444 37.0118
1 40.7323 8.51378 39.4881
1 35.0242 38.0882 41.8053
1 45.0486 8.67111 31.4681
1 43.8664 26.4578 19.1893
1 32.2567 38.1255 43.3372
1 30.2925 26.7607 0.925409
1 49.7261 21.4972 14.8623
1 31.2273 25.4489 32.3992
1 27.3028 10.0954 9.35532
1 15.8437 5.01472 26.6755
1 30.2094 33.1369 15.7125
1 7.09961 6.41753 6.62719
1 44.2576 10.019 48.1872
1 9.22306 38.0449 26.5332
1 27.9631 44.8058 21.4739
1 13.3395 46.3966 13.1121
1 29.548 35.5916 27.9344
1 31.1573 0.229486 11.3833
1 25.2158 44.2788 48.5153
1 26.6069 1.83898 46.9331
1 36.6346 3.60556 25.8268
1 8.23609 27.9181 1.61567
1 15.9918 46.0679 22.493
1 22.8905 7.19601 23.8343
1 33.8087 17.9899 5.1582
1 13.4146 26.4873 9.85513
1 41.8531 16.8209 22.7221
1 6.83174 21.1341 8.73331
1 30.4203 12.727 22.7135
1 28.0897 22.7328 30.1337
1 17.8588 49.5121 33.4817
1 45.6057 30.4065 11.1445
1 30.9134 44.0365 3.75372
1 9.76232 41.0052 45.7681
1 10.6671 33.9508 29.1531
1 47.0168 37.5767 9.3524
1 5.3338 34.184 1.22625
1 4.15361 17.4478 34.0394
1 10.7076 40.373 13.1571
1 39.6259 31.4649 42.1589
1 35.6695 45.7513 2.95497
1 9.70443 31.1608 6.58629
1 6.19183 18.347 49.6776
1 34.7703 22.8818 13.5141
1 37.1641 19.5668 4.81596
1 15.216 45.6929 25.9685
1 35.2057 16.3957 6.76751
1 11.999 28.7096 3.78348
1 48.5865 26.2231 5.47545
1 19.3488 32.5143 36.3101
1 43.9165 10.6154 42.3234
1 32.3292 1.85411 6.6509
1 39.6564 12.4331 22.9931
1 8.66521 42.087 3.60109
1 47.1772 24.7639 16.5036
1 44.445 39.9327 30.7858
1 40.6265 15.6672 32.3768
1 4.7911 42.775 42.5815
1 20.1421 25.9987 22.1651
1 5.70939 43.7654 16.7598
1 9.77464 23.7586 44.2858
1 36.4454 47.2971 31.482
1 34.6552 20.6094 47.4827
1 19.298 34.1691 14.3882
1 2.87257 4.33365 0.550104
1 43.7691 11.6361 22.6122
1 5.29356 15.5965 38.9455
1 10.8769 6.85962 45.1318
1 26.4616 44.1188 9.05401
1 29.3862 22.1237 49.3663
1 17.8817 39.1526 0.844673
1 44.4668 27.4602 3.44324
1 36.0719 15.6245 40.4384
1 39.3305 18.8847 49.6157
1 23.8791 29.1422 6.44309
1 48.919 30.3927 0.385354
1 3.94458 16.9056 3.94257
1 40.684 29.1372 32.1382
1 34.3159 34.306 16.321
1 29.985 37.2753 16.5936
1 0.582056 4.17915 18.3805
1 1.05073 27.0395 36.7074
1 6.83878 16.9614 26.6888
1 28.9536 29.0561 8.31936
1 28.6345 24.2519 20.4713
1 12.4647 25.7053 30.8858
1 7.52043 2.98048 4.6966
1 14.4881 32.479 43.9524
1 48.8755 34.5512 39.9896
1 4.81658 36.4317 20.5407
1 47.2941 26.9139 40.0114
1 6.05307 7.10116 15.3767
1 0.19139 28.1378 27.4452
1 2.37105 49.2581 0.768415
1 17.2062 33.6739 2.3538
1 23.3817 28.598 34.7638
1 15.5505 20.0391 1.22383
1 30.0819 1.98673 5.36706
1 37.984 32.8458 0.952108
1 1.25163 18.4486 18.1874
1 42.1005 39.2091 3.71703
1 36.2626 27.7525 46.627
1 42.3322 30.9006 19.3881
1 44.8675 45.9863 17.2114
1 0.332669 23.9829 40.6821
1 41.2575 37.0887 38.2534
1 41.8177 22.2296 31.5784
1 42.2643 36.4032 45.4642
1 20.1707 9.84935 4.17963
1 32.1492 5.01023 43.3435
1 44.9069 42.7076 34.956
1 3.54805 2.36056 6.98374
1 6.20016 42.806 20.764
1 31.6063 28.5704 48.7922
1 0.153877 0.338773 49.2279
1 23.3415 39.1985 13.9314
1 0.484597 45.2045 29.0722
1 9.30358 18.0822 31.1016
1 46.2211 7.21787 8.67759
1 13.4493 48.0602 49.2788
1 15.6669 9.70448 0.644389
1 23.4811 24.9893 34.1086
1 21.3657 20.1067 46.8156
1 44.7413 3.72376 6.69087
1 3.54942 7.64841 25.5272
1 15.7387 23.7333 22.3019
1 31.4168 31.3467 5.54267
1 6.00539 26.3096 1.4719
1 19.6668 26.1404 37.912
1 18.7734 11.2109 39.1287
1 4.18087 16.6019 44.6616
1 1.96494 15.8977 12.4918
1 47.7411 26.7053 0.769015
1 7.42754 26.5517 19.5894
1 28.1176 18.6848 18.1557
1 32.7053 14.6087 46.7451
1 48.5263 37.4764 36.2234
1 17.4533 19.9597 21.9373
1 17.3472 44.8034 42.2634
1 34.0694 31.0864 35.5351
1 0.348926 46.9134 8.22882
1 1.72079 2.03626 30.0956
1 46.3408 31.7824 13.1789
1 42.6739 18.564 26.5926
1 22.2073 39.7525 22.6374
1 36.1272 30.3357 48.5372
1 0.322694 26.381 39.5091
1 48.1072 37.3752 20.1146
1 10.6133 25.7904 7.01306
1 41.0497 29.1848 40.9604
1 11.2271 13.4466 18.9941
1 28.0083 18.4176 42.0548
1 0.528849 19.9013 12.7144
1 40.4301 21.1796 15.613
1 40.7613 36.4646 21.2729
1 49.7256 28.9762 47.1141
1 17.8438 8.65419 6.87827
1 18.6501 29.1349 24.5048
1 28.0388 48.4903 20.9467
1 7.5529 23.809 34.102
1 6.98464 3.36457 43.8567
1 28.2214 38.4184 20.5821
1 4.29774 36.3392 42.8357
1 48.2661 6.37841 14.9743
1 5.28214 39.966 12.0656
1 23.3487 4.0071 19.4784
1 25.6798 34.9581 34.9368
1 24.037 36.5736 33.7067
1 32.7286 48.7388 29.9599
1 26.6467 3.40904 17.5489
1 3.44575 26.336 25.1602
1 47.5749 18.4832 30.513
1 1.37691 25.3603 28.9915
1 40.7409 49.3536 11.3979
1 10.2674 2.8851 31.7439
1 26.7507 23.2988 41.2991
1 15.1373 26.3156 29.8718
1 0.853651 17.3062 0.163966
1 11.826 17.1919 34.8823
1 22.1428 26.2815 2.61671
1 41.4959 5.96013 38.3072
1 13.2362 4.30042 34.9042
1 47.1351 12.9654 0.0869051
1 42.0581 14.3106 40.1712
1 27.5186 46.2191 33.465
1 37.3442 9.75363 12.8187
1 6.18023 1.09983 3.17379
1 1.4836 38.7196 32.8577
1 10.7478 11.274 21.3362
1 13.2633 40.5787 14.2557
1 22.5139 41.322 9.82486
1 7.63697 12.5498 18.779
1 7.05474 19.589 19.907
1 30.1045 7.02154 27.8395
1 20.4456 23.8566 24.1994
1 48.2228 15.9748 38.2901
1 43.1718 42.1374 49.7048
1 1.771 49.3124 45.0065
1 10.7672 32.3331 15.4149
1 17.545 26.1485 22.4599
1 41.5529 16.037 19.745
1 16.6025 13.4806 30.4085
1 15.1345 10.0858 12.6093
1 16.1456 23.3228 17.5985
1 23.6629 26.9043 16.3315
1 42.5374 25.6286 33.6032
1 3.74241 43.4963 3.11129
1 11.8996 46.0964 2.78542
1 12.3119 43.0339 9.93309
1 47.6368 27.923 42.3985
1 1.09422 39.3597 16.3701
1 20.3841 47.6096 2.59437
1 14.0814 22.9114 19.1804
1 42.9328 48.1702 41.5011
1 11.7804 44.3897 38.9877
1 23.0114 3.44463 39.5062
1 26.5216 37.7998 5.68595
1 8.90744 33.1078 22.2771
1 48.0917 43.6143 17.9873
1 13.374 24.0405 42.4109
1 11.7062 33.8763 21.674
1 41.6463 47.2485 10.358
1 41.7286 4.99965 9.71939
1 17.4823 19.8213 30.841
1 34.7396 17.5992 31.234
1 46.8307 22.2489 6.14051
1 43.6469 6.65886 30.9424
1 48.5567 16.8866 40.6766
1 49.7575 33.0825 1.29762
1 2.40212 15.8282 5.90909
1 4.79643 9.87182 28.0823
1 49.0731 43.2455 24.7911
1 3.18315 31.038 38.0103
1 8.78791 21.1875 1.8555
1 19.6582 42.6518 10.4376
1 3.57993 4.85365 47.6738
1 31.6409 47.8875 2.06883
1 38.3197 30.9085 25.4436
1 27.3908 47.0663 16.6886
1 12.6239 48.2263 41.856
1 13.4125 33.2976 0.29128
1 22.7418 39.1401 43.7171
1 26.8058 4.36513 9.69636
1 5.77822 2.68328 21.8807
1 32.345 49.1801 41.2725
1 20.8226 42.9686 30.4503
1 2.89359 5.48777 16.8329
1 7.50086 29.233 6.73491
1 39.7267 48.53 34.929
1 47.4954 9.57353 30.2704
1 40.7293 13.0484 42.7505
1 22.3663 27.9792 37.3387
1 5.54721 44.5895 31.4338
1 33.5754 10.9141 15.6729
1 15.039 36.7342 31.9543
1 3.2914 28.8766 31.2002
1 5.4926 5.9598 23.1109
1 39.9565 12.4554 25.7765
1 47.2942 47.6299 40.7182
1 39.2226 29.5623 38.0292
1 2.48815 37.409 19.0618
1 26.4935 22.6628 36.713
1 46.792 30.8881 32.0204
1 11.7369 41.3113 42.2265
1 30.2519 2.75088 2.72693
1 1.7675 26.3712 10.1071
1 36.8208 20.9871 13.4124
1 35.3252 23.1822 48.181
1 43.5628 46.1183 12.6211
1 29.9548 13.7966 34.2159
1 24.4563 3.08928 24.5269
1 31.0822 24.6661 8.34242
1 15.6975 26.5291 13.9943
1 18.5789 31.4079 30.363
1 47.7069 43.9421 3.12443
1 25.0788 44.1498 27.779
1 42.376 33.9244 31.705
1 5.78113 19.8265 39.6693
1 32.4601 9.86587 36.8376
1 37.3069 41.9507 7.47138
1 13.206 26.6342 38.4942
1 21.9981 8.33865 5.76334
1 28.383 7.95429 49.6544
1 34.6906 13.4364 5.13968
1 32.7635 27.4284 22.138
1 48.647 28.5036 4.67131
1 37.4155 45.4831 18.3849
1 24.6898 31.9335 25.6961
1 42.6062 42.174 31.0012
1 10.4176 0.497001 15.6533
1 3.05369 27.8401 17.5488
1 19.2874 0.594876 0.303662
1 21.6913 6.58723 14.3245
1 8.95358 1.89038 42.4016
1 30.334 19.3338 26.3817
1 38.2186 28.5889 29.4235
1 3.97602 11.6297 15.5796
1 31.3575 23.5309 25.3056
1 22.7922 44.4962 4.05777
1 27.1311 4.89002 44.2996
1 48.0743 5.9955 5.34431
1 46.7898 16.0377 7.32718
1 4.09506 34.6356 27.8524
1 10.765 36.0836 45.1089
1 19.1014 48.8958 41.4237
1 12.8989 35.7977 19.6226
1 2.25859 39.8441 4.89147
1 1.74866 15.0615 9.9322
1 19.7228 25.4344 40.4906
1 49.2849 21.2079 5.89989
1 12.598 35.9677 0.854211
1 44.4243 28.9067 19.1067
1 1.37721 20.4277 22.9217
1 43.1174 9.5102 17.5474
1 44.0493 42.0148 12.6101
1 16.0214 8.27713 36.0535
1 43.246 18.2838 31.4723
1 34.6332 17.9527 24.7368
1 43.0192 45.0361 5.71791
1 11.9282 15.484 43.3856
1 29.8218 14.3897 46.6058
1 25.0933 45.6652 34.1258
1 40.6476 23.5136 22.2657
1 46.6693 17.8287 16.6057
1 20.8468 5.36993 46.341
1 41.5067 9.84201 30.8397
1 34.9628 24.753 27.7906
1 45.3461 39.6436 45.6649
1 8.50613 10.7576 17.2597
1 4.98224 10.459 44.8284
1 30.9888 13.4439 13.963
1 7.90177 29.2511 47.2814
1 26.828 17.7323 48.3481
1 37.85 39.008 0.47193
1 38.1944 48.3576 17.4261
1 7.27922 33.5398 14.8376
1 26.0632 13.7193 20.6899
1 14.1189 39.8681 1.79002
1 12.1517 37.0865 23.6849
1 24.287 36.2899 49.4334
1 4.74839 29.6461 14.1429
1 25.1055 2.96914 27.1642
1 11.8783 3.30288 24.1399
1 3.82434 30.2887 8.90562
1 14.4577 14.69 47.7625
1 40.4444 46.7021 24.4205
1 7.06615 11.7191 0.935104
1 30.4343 48.7123 28.1416
1 14.6269 24.9194 27.492
1 10.341 28.1908 32.8033
1 35.4248 6.72119 47.1426
1 2.32065 36.6581 16.2736
1 1.06023 2.32203 10.56
1 21.9018 27.9671 25.3727
1 46.8106 8.79146 1.98045
1 32.7276 39.06 26.5275
1 26.1723 44.1594 11.9325
1 34.3048 13.6974 19.6791
1 7.96634 30.6584 14.2321
1 35.3174 49.0119 18.9739
1 0.355088 5.41964 0.633906
1 16.4886 47.3615 34.3337
1 30.716 45.0821 39.9638
1 17.7598 48.4282 49.0984
1 40.0212 23.3278 45.6896
1 28.7592 43.4831 33.5641
1 14.8449 33.6548 31.6035
1 31.0487 42.8869 28.5802
1 41.0414 33.9028 21.4529
1 49.4219 25.0848 48.9434
1 37.8505 1.09033 49.494
1 11.8883 11.6744 44.634
1 40.4397 8.79949 27.9922
1 17.9863 40.7559 21.3667
1 29.8908 42.6967 14.9646
1 17.3266 17.0865 40.0612
1 28.1149 37.2685 11.4846
1 17.626 40.0865 29.6156
1 9.02647 18.1663 28.1621
1 26.4842 11.6185 33.3429
1 7.85728 42.9395 27.2008
1 12.6884 37.1729 26.8698
1 17.4223 40.4716 16.8925
1 20.5638 29.5041 31.0622
1 4.24973 42.6771 37.2306
1 6.80322 31.3856 39.9612
1 39.5441 46.573 30.2948
1 18.6824 5.43517 34.1809
1 38.7662 16.086 49.386
1 9.40634 4.83474 9.32568
1 21.953 43.9175 46.6609
1 48.0238 14.3819 24.3558
1 23.6685 9.2549 14.8031
1 1.2669 8.59806 14.7315
1 23.9911 47.3256 18.621
1 46.2646 29.6852 27.1258
1 14.8308 37.3432 0.650197
1 38.8726 37.6831 48.2895
1 19.4411 19.4721 28.4563
1 26.0454 43.2594 42.0405
1 47.5938 35.7825 38.0519
1 30.4271 23.9517 44.6497
1 30.5251 39.5854 36.9078
1 6.93771 6.07411 27.854
1 2.85421 34.1976 17.3562
1 39.1137 43.387 1.36858
1 21.3005 34.3042 45.8634
1 41.2296 14.9907 0.30297
1 0.66929 4.29343 39.4245
1 48.8499 5.28195 24.8925
1 32.5879 41.6459 37.3484
1 44.561 25.2224 16.715
1 8.21725 39.6512 44.0856
1 16.2808 9.6834 3.34316
1 26.5071 13.9064 43.2255
1 9.56828 27.884 40.9358
1 39.412 1.66719 46.79
1 27.7465 17.8329 45.0407
1 32.4198 40.3097 16.8906
1 40.7244 38.6988 8.60616
1 46.0645 20.6377 34.1463
1 48.4839 7.27016 9.77538
1 16.601 47.5486 40.7861