4096
 Atoms. Timestep: 5440
1 42.1085 29.9428 15.0443
1 12.7294 13.7331 37.1512
1 2.8949 13.7733 14.869
1 7.30343 41.0617 28.004
1 9.65832 27.5247 2.63969
1 1.06201 18.4032 4.68172
1 33.7095 42.0131 43.1509
1 27.0065 46.2797 24.6866
1 48.5113 5.31375 40.4515
1 30.0809 22.1817 46.8103
1 40.3877 9.55524 19.7602
1 10.5424 16.6297 30.7981
1 6.60889 15.1164 8.58612
1 24.1393 8.58982 15.0797
1 11.8945 39.5796 3.44511
1 38.6059 33.8082 32.0592
1 38.5644 41.7287 24.2545
1 2.92305 37.3908 14.5436
1 20.1541 9.11485 33.9472
1 14.3648 4.31102 11.5396
1 7.21636 11.836 33.652
1 7.06034 38.9618 9.13161
1 27.1074 38.5367 4.00951
1 10.51 41.1655 25.7419
1 20.6745 44.5267 27.1305
1 23.2527 17.9272 33.9792
1 9.84733 29.0852 26.517
1 22.5279 2.6658 7.60202
1 26.2611 7.09064 44.0073
1 10.5386 0.681478 23.204
1 9.85349 17.8867 14.3872
1 26.0457 30.3001 7.47597
1 34.5425 15.6927 7.5086
1 29.9865 23.1372 13.6067
1 44.0473 48.3365 33.1825
1 18.7514 2.19894 33.0139
1 3.39365 10.5734 11.3193
1 4.24384 0.354908 47.847
1 12.5555 9.81579 10.711
1 38.99 37.6691 31.1748
1 29.3173 32.7215 35.2025
1 13.494 23.1106 7.75794
1 45.9521 41.0336 31.6052
1 30.6745 40.2523 17.3198
1 28.9632 46.4344 10.5534
1 49.1114 40.5322 7.88226
1 23.8814 5.53777 9.75729
1 43.3057 21.3244 12.605
1 29.7465 27.5478 3.91171
1 48.1176 3.20103 46.5778
1 3.64435 38.1939 46.892
1 6.38839 21.8657 18.5461
1 16.3809 18.6896 1.18893
1 0.872954 16.1695 20.2015
1 8.71805 43.9715 25.16
1 7.03857 5.69239 13.3993
1 12.8825 46.3215 16.417
1 11.1209 48.8541 25.1487
1 46.8096 15.8359 48.5446
1 46.372 17.695 24.916
1 17.9823 43.689 34.0646
1 7.05442 3.94114 27.5853
1 43.6232 32.5815 38.8043
1 45.7775 17.777 20.3635
1 25.252 19.9325 21.0728
1 15.6699 30.7976 38.3705
1 32.3653 24.0501 47.4182
1 47.6736 19.1594 4.27512
1 30.5008 20.5508 14.9734
1 23.2497 23.1243 12.9391
1 29.4811 37.6431 45.743
1 30.3491 40.6806 9.39644
1 42.1229 7.31888 29.3706
1 40.6822 9.35175 5.25465
1 29.9199 16.5231 36.9289
1 31.116 28.7009 42.1383
1 20.874 42.8045 6.39816
1 29.2748 4.16147 42.7987
1 21.5666 25.7683 49.579
1 21.3404 1.23564 14.6179
1 32.1522 6.61064 46.9172
1 17.2662 18.1805 47.3063
1 19.9423 20.0267 43.4314
1 28.5582 15.4005 11.5976
1 38.3613 40.6962 41.6154
1 30.2638 31.8272 27.4179
1 39.3292 9.37653 47.9872
1 11.7875 19.1198 10.0249
1 31.6481 17.4243 8.35134
1 21.3979 20.2251 4.29648
1 38.9827 24.0207 13.6319
1 29.8479 38.4577 12.2349
1 21.2638 46.981 14.507
1 22.9103 24.7692 38.1054
1 10.8083 37.6144 7.51639
1 20.5006 32.3359 26.9075
1 34.0766 2.6927 21.9175
1 36.7796 21.7624 12.012
1 15.8268 47.2289 17.7451
1 13.3997 12.529 21.8513
1 16.3728 9.72941 16.7301
1 19.5796 20.6574 33.0602
1 9.51445 38.8053 49.6244
1 14.7499 36.75 26.9954
1 21.404 40.0017 14.2745
1 33.1381 2.18773 4.75386
1 36.1402 26.6842 12.2542
1 9.84567 48.136 4.39784
1 19.5231 3.41073 43.928
1 1.02819 38.47 48.3075
1 17.5639 9.21497 10.7105
1 14.0376 33.9494 21.9816
1 4.75585 42.6825 43.1791
1 10.539 1.03301 3.95016
1 27.7977 6.53077 41.7123
1 20.7119 11.5779 26.1578
1 15.4214 25.8288 29.4994
1 35.078 31.5344 37.051
1 10.4241 32.1504 49.574
1 11.1682 38.5653 26.55
1 16.1104 8.63484 3.17846
1 12.2384 30.545 17.3806
1 36.7394 6.4408 49.1953
1 14.703 39.3837 14.8522
1 37.5325 43.2735 42.4716
1 15.2875 15.8703 40.3474
1 32.9165 39.7045 30.3935
1 11.9434 31.807 33.6903
1 36.5628 49.8798 19.422
1 24.6801 23.73 18.6658
1 33.5891 22.3488 6.41607
1 21.3818 22.6889 31.9702
1 6.9285 27.1062 38.1969
1 48.1977 38.8629 6.09498
1 48.8628 45.9244 23.8047
1 37.4244 17.7612 39.8926
1 47.1508 12.5453 25.34
1 19.3206 40.1487 38.0754
1 18.9133 40.0388 4.30556
1 30.8424 21.1293 49.3653
1 43.5273 4.42744 15.736
1 9.15999 13.7655 23.1348
1 34.4128 6.51308 42.3758
1 3.38352 9.60022 32.8745
1 12.3648 25.4121 24.7158
1 34.029 22.8706 18.4422
1 22.1549 49.0743 18.1915
1 18.5084 8.09257 26.5448
1 0.303229 36.0927 49.5481
1 6.01463 13.5034 37.8953
1 5.80316 18.7924 49.5031
1 1.68299 12.3659 10.4647
1 40.5289 43.5774 13.6568
1 31.6796 8.09102 9.43842
1 43.2505 3.42005 1.75347
1 41.9333 8.42277 41.1043
1 37.9283 8.06472 40.6606
1 43.049 7.99529 5.82497
1 31.4725 23.0272 17.4859
1 37.407 3.69262 17.3373
1 19.5249 28.7185 42.3366
1 46.2139 15.2815 3.07086
1 39.1482 12.3088 23.1388
1 17.636 -0.0445111 17.4309
1 44.4965 25.641 36.3656
1 11.4254 29.9181 37.8574
1 24.4992 18.0179 22.8014
1 27.9565 48.8897 44.3895
1 24.1283 4.41662 7.18977
1 13.9449 47.5219 19.7275
1 6.0913 9.66382 21.7325
1 47.5366 46.2429 29.6333
1 16.5252 41.0599 8.76511
1 19.6754 9.94079 1.73589
1 21.0713 4.73459 9.62794
1 25.0553 22.6314 16.2259
1 48.2501 5.7404 19.6014
1 47.6679 40.9729 10.0498
1 28.5004 40.7205 19.0742
1 19.6413 38.1771 45.8915
1 9.82956 4.76289 7.26592
1 9.85795 45.3283 27.8458
1 12.7824 20.5451 7.57747
1 28.8829 8.49434 44.863
1 0.734431 3.53261 44.2806
1 16.7059 2.61229 22.2023
1 28.5149 39.1476 23.6174
1 25.5196 34.8657 21.4643
1 26.4535 48.6301 46.9878
1 7.22319 32.7282 20.586
1 11.1568 19.7223 5.49395
1 24.5629 32.947 8.10374
1 32.3386 9.39051 12.0388
1 26.637 43.0239 15.6437
1 8.94701 36.492 31.9276
1 24.4373 34.3373 11.1364
1 49.9038 0.87204 5.23714
1 16.0636 35.4809 15.7808
1 43.2088 25.0632 29.6711
1 10.7536 37.9314 14.1585
1 3.93308 18.9885 31.2097
1 48.8383 42.2372 46.6471
1 18.8489 40.135 7.25845
1 3.2793 16.6578 7.73638
1 9.65015 0.786278 28.0444
1 30.9792 12.8863 14.8267
1 42.4637 29.7373 43.1191
1 24.3756 13.956 19.5154
1 2.02438 45.0789 41.5604
1 3.73547 46.9784 11.5026
1 24.6318 -0.124462 23.5162
1 32.557 17.1802 36.7537
1 48.4408 13.1475 13.6832
1 10.3706 18.4807 20.3142
1 20.2516 38.2695 1.59631
1 33.5387 44.7984 29.0045
1 16.0183 2.61674 25.9067
1 29.2405 27.8807 40.0705
1 17.0241 4.61422 10.8862
1 23.1954 14.1355 27.4693
1 27.5295 33.3388 12.8305
1 2.91861 12.6817 31.01
1 44.6197 2.53216 27.6806
1 36.3112 8.61376 47.1508
1 12.7586 21.2952 26.8667
1 20.3189 34.2163 21.1824
1 35.9539 1.24336 13.3367
1 17.0923 45.2851 5.01682
1 43.5753 36.4959 31.4573
1 6.23785 12.7702 20.6068
1 19.7148 36.0639 14.4269
1 26.7382 34.6864 14.8816
1 14.9381 42.9533 35.4798
1 31.0457 5.90277 38.0154
1 12.1719 20.3085 24.4578
1 8.6117 11.4266 21.8653
1 40.602 49.474 26.8817
1 6.77121 32.952 14.281
1 1.36306 2.495 18.343
1 43.1326 23.4137 7.13416
1 7.97241 31.7158 4.77508
1 42.8555 29.6222 30.1936
1 4.1067 14.2771 0.442064
1 37.1182 41.7064 30.4406
1 6.71094 38.8264 30.7363
1 45.1101 34.8236 9.57603
1 6.60869 10.2858 30.7877
1 43.3183 17.9855 1.00123
1 24.3558 18.8327 25.1803
1 43.371 20.3625 30.7873
1 43.6112 32.6856 32.6999
1 11.5802 36.7231 3.68237
1 45.0409 2.58032 37.6999
1 39.0703 7.32201 23.6191
1 20.8252 5.04034 24.1094
1 8.12138 17.6836 43.6267
1 38.7904 3.4956 19.5942
1 16.2769 33.3462 39.3793
1 14.296 22.1752 12.2092
1 6.20892 44.5545 15.5753
1 7.76525 2.60065 17.2775
1 16.5108 9.55404 25.2448
1 17.3352 17.0564 15.9965
1 1.46979 0.267844 44.9992
1 9.96308 34.4688 42.0882
1 3.07541 19.1324 7.90839
1 21.4513 41.8414 21.7238
1 34.6873 30.8533 1.67556
1 15.7802 32.1439 43.0897
1 4.98938 35.8339 30.7633
1 16.8065 3.20335 40.686
1 38.238 23.859 42.0343
1 0.168648 19.738 27.4904
1 4.35639 42.5952 47.4831
1 9.6499 2.57662 15.1405
1 45.6659 44.8779 8.15258
1 35.7787 36.2469 24.4883
1 19.9997 26.9226 23.2303
1 27.6202 21.3937 22.1881
1 48.5874 19.9418 9.53
1 4.62555 20.3398 5.96257
1 21.2571 1.04258 38.5627
1 33.2073 29.6848 13.4659
1 3.37194 45.0923 46.0651
1 12.2719 4.86084 6.17354
1 37.1151 33.1712 3.7827
1 11.3878 24.2586 9.47549
1 49.3112 11.1025 32.7914
1 9.00141 13.6229 8.22202
1 9.46992 11.0827 47.5832
1 26.943 12.9475 36.268
1 0.684411 19.5472 36.5497
1 25.667 30.6565 36.4642
1 18.5176 40.5595 24.998
1 19.8359 17.8317 11.1156
1 5.08922 2.63675 16.1355
1 5.26222 19.0973 35.653
1 44.5909 43.774 18.1079
1 46.4613 27.9753 0.838816
1 34.5535 17.2155 33.0536
1 8.55435 40.1815 21.7362
1 23.0186 26.2735 29.9844
1 49.516 14.312 29.209
1 7.49118 25.7841 25.078
1 12.9475 44.5861 12.0901
1 37.8878 14.6638 14.8727
1 40.1068 26.929 26.2694
1 33.4977 20.0435 40.0004
1 38.0445 24.7423 10.9286
1 27.0617 0.432417 23.332
1 41.0962 47.5829 14.6331
1 45.3155 10.2368 38.6092
1 35.1247 26.439 7.06763
1 25.1271 12.3605 12.1223
1 26.9485 12.4439 14.1458
1 44.7776 17.2464 46.329
1 20.5167 21.761 16.9191
1 15.8289 40.8332 44.992
1 7.65026 12.3066 1.3004
1 32.9139 31.0465 6.64302
1 17.9983 13.1506 34.9798
1 0.905121 25.5881 31.6699
1 32.3664 24.7899 9.89546
1 32.036 10.3124 8.0106
1 12.3702 45.5488 47.2373
1 34.7487 30.943 18.1747
1 17.4775 29.0663 44.38
1 1.99799 6.53311 16.9863
1 26.7045 35.0467 45.8192
1 31.7054 9.62044 21.2528
1 23.6049 44.596 18.7368
1 22.6985 7.37663 33.8911
1 35.0863 9.05355 33.8155
1 40.6931 45.393 3.6209
1 27.4921 24.5926 26.6022
1 45.0253 23.7497 24.609
1 39.2705 21.8912 2.18864
1 46.9679 46.5597 9.99635
1 10.5165 39.3636 11.7244
1 45.7566 10.6643 2.8895
1 3.48455 39.9462 39.8299
1 31.4586 38.2899 8.5463
1 33.5886 25.1958 27.6392
1 30.5402 1.4968 41.7465
1 38.2818 9.00469 27.2374
1 13.7848 48.6126 4.16189
1 27.6236 10.7921 34.4267
1 26.2197 17.8488 34.6863
1 14.9432 31.1981 7.65201
1 19.2624 42.2119 20.1276
1 23.1183 2.24055 4.70462
1 12.8417 40.8012 48.8698
1 27.0054 18.9186 8.99973
1 13.4361 4.24276 48.9873
1 38.9404 47.1385 4.76943
1 20.3259 8.85 30.4437
1 10.0491 11.5537 2.12682
1 43.3681 13.5414 0.394776
1 19.4982 8.4995 36.5891
1 48.8878 36.7357 2.00384
1 37.7893 8.18482 19.2521
1 17.8255 46.8863 24.7689
1 8.00411 49.4928 45.5888
1 10.3906 26.0349 36.0812
1 24.4172 16.8381 27.1077
1 16.7544 25.6742 41.6174
1 36.8474 18.9269 35.7999
1 21.9857 23.5231 48.1056
1 49.7034 45.8117 2.83589
1 20.9424 12.6407 38.4402
1 2.17407 40.0539 0.645363
1 6.89772 20.6435 30.3836
1 13.7655 21.7597 22.4729
1 36.9288 3.28548 22.1098
1 7.45646 15.478 30.9884
1 38.624 46.0269 14.3945
1 42.0639 5.21664 42.926
1 27.3137 21.9665 26.8386
1 39.2739 46.0045 8.36497
1 29.6658 1.74775 13.9924
1 19.9359 47.8897 17.1691
1 40.5759 10.0601 32.1033
1 21.3654 36.5611 40.9397
1 41.3217 2.77008 8.98626
1 37.0574 46.9373 6.81834
1 35.8907 3.1505 29.9871
1 2.99235 7.34503 45.1823
1 12.1332 23.8521 12.3147
1 27.2479 34.224 5.03598
1 12.9655 26.5597 49.2489
1 34.4658 46.0455 20.6399
1 1.58934 32.9019 37.7344
1 35.5949 12.5916 0.994975
1 20.2528 32.3667 31.8225
1 9.56015 1.14653 12.6887
1 30.0112 14.529 24.137
1 12.5919 33.1871 6.32506
1 26.9909 18.3444 42.1488
1 29.7362 22.18 42.2098
1 4.14279 7.48417 26.9964
1 24.3363 26.4752 47.1601
1 14.7703 24.3572 42.5793
1 17.1488 2.37657 -0.0220373
1 39.8939 47.217 25.6354
1 14.5921 36.3982 35.6003
1 29.8226 15.7177 39.6364
1 17.5144 46.7829 40.7175
1 4.03984 11.2804 27.7632
1 15.1672 28.1898 16.1423
1 41.431 28.4649 18.435
1 14.21 38.4934 5.76367
1 33.057 49.4233 30.4863
1 23.0134 24.6704 15.2195
1 47.3512 23.2081 29.1063
1 19.5192 49.4985 21.0115
1 41.5704 18.3518 39.7594
1 28.4672 8.18754 30.0506
1 40.8158 45.036 18.213
1 15.3784 46.4414 38.917
1 10.7112 39.2025 40.1227
1 10.5746 28.3246 45.5026
1 47.3291 22.6193 32.152
1 43.9486 41.7966 46.8818
1 12.3257 43.0516 40.9628
1 19.9257 34.1703 11.5204
1 5.38233 27.9053 35.9668
1 20.209 43.503 44.2187
1 47.5022 18.9975 41.0108
1 10.7963 3.02018 47.2925
1 46.75 21.6532 25.1515
1 40.728 18.7491 23.2814
1 39.281 17.5496 14.1798
1 34.0435 37.336 22.5522
1 35.2991 34.2104 37.5196
1 45.6612 25.6516 28.2814
1 46.1189 4.06259 22.1074
1 4.29071 39.9439 33.0823
1 2.17724 15.1343 30.2635
1 19.2143 24.585 42.3679
1 42.2737 34.257 29.3856
1 4.86777 33.0342 41.7965
1 32.207 25.9516 41.5152
1 10.3589 12.1218 4.68203
1 20.7359 38.8409 35.9527
1 32.2866 43.8 1.55637
1 0.74135 8.73546 32.8833
1 10.7094 0.476194 20.5264
1 11.3595 40.1401 6.38414
1 42.1569 28.3804 48.0901
1 46.6981 27.1638 44.8839
1 1.15627 11.3008 27.7294
1 29.9905 24.3325 35.3471
1 7.61259 17.1039 24.7124
1 27.6288 44.5493 31.6195
1 46.9499 46.957 37.2298
1 21.6611 15.917 11.12
1 16.7508 24.8839 23.6613
1 4.07512 34.6105 47.6376
1 33.733 42.3358 15.1328
1 5.02613 12.9612 40.9448
1 20.1692 46.9465 25.7959
1 3.40635 9.34911 48.0713
1 29.8676 31.1009 47.6939
1 22.7464 29.3485 19.0025
1 24.0567 3.67601 41.0735
1 16.976 5.06402 38.5487
1 14.2316 46.9427 31.2269
1 35.2065 24.8209 9.52563
1 12.6139 36.2017 46.201
1 7.80317 42.6012 39.7358
1 48.9458 14.1205 49.0447
1 7.0178 23.989 37.9793
1 24.5006 43.2106 29.6326
1 2.01115 20.5797 48.9634
1 9.78687 17.1056 22.9224
1 2.39426 1.45004 28.1989
1 12.3135 30.4888 42.5564
1 2.61523 18.6939 10.8625
1 6.90989 8.19537 11.8657
1 9.18825 47.5539 16.7691
1 13.6054 28.3398 41.3618
1 12.5964 8.49923 48.075
1 48.1334 32.1662 31.1582
1 33.2538 12.1023 31.0763
1 0.848657 38.3807 13.3849
1 11.3592 30.4977 28.1318
1 38.5713 38.4084 16.8817
1 14.5824 48.6822 46.7896
1 30.1197 31.4259 42.2339
1 21.9795 32.441 48.9892
1 17.6488 20.9235 44.213
1 31.8498 18.9442 28.8604
1 40.6514 7.0833 13.439
1 32.1787 37.1566 32.8867
1 16.6484 40.0493 37.5749
1 48.8307 30.7044 12.3402
1 0.17045 42.8868 6.72122
1 22.2751 7.48739 28.5645
1 3.53755 6.64378 1.78432
1 34.5916 8.14282 7.66979
1 0.780937 7.9871 40.1762
1 21.3104 1.43011 0.358335
1 32.2847 6.69746 35.485
1 6.93562 25.3716 29.1415
1 49.1016 34.6094 47.6222
1 34.7994 11.6609 45.8944
1 8.71545 20.6823 21.6923
1 17.3775 3.16181 19.3354
1 43.173 28.0596 3.75923
1 23.4463 15.4646 33.1763
1 42.6625 30.8957 18.3027
1 7.33222 31.9993 24.5096
1 43.6445 44.584 46.1848
1 14.6116 6.45856 48.5105
1 0.458016 36.6453 22.8502
1 38.7848 25.4706 21.2484
1 42.672 26.6819 25.2694
1 4.82315 1.83542 20.751
1 16.4532 2.57168 37.0326
1 42.8938 14.9352 42.4086
1 6.11201 20.8105 20.8408
1 9.54419 12.1222 36.6554
1 6.54715 0.462209 49.2306
1 49.4774 0.272239 11.1494
1 3.70958 23.8209 31.0841
1 44.8942 26.5371 40.4414
1 33.6507 36.043 38.8355
1 32.5762 18.3813 21.991
1 6.13215 33.3037 48.5087
1 32.0574 33.1647 20.8299
1 11.5484 0.252572 34.4003
1 10.9374 27.7758 24.2111
1 19.4171 25.4635 1.75848
1 4.86023 15.1582 33.6944
1 43.8033 48.8734 10.4771
1 5.6559 44.9589 5.88316
1 17.8326 24.5867 18.8682
1 9.93652 44.8702 0.417921
1 35.9542 9.24105 20.9134
1 42.4504 29.6028 35.1894
1 7.67355 38.2757 44.7442
1 18.3106 13.0705 24.0011
1 5.65459 40.7439 3.39245
1 20.8375 34.9127 49.1723
1 43.5002 0.784687 17.8951
1 18.0076 16.3297 43.4166
1 16.069 8.9877 22.5718
1 21.8056 11.3892 33.4534
1 45.4763 48.8559 19.0983
1 42.5735 32.2743 49.4337
1 42.9469 26.8043 19.9144
1 2.66775 35.0778 0.228777
1 21.6033 48.4994 6.60285
1 26.4969 33.779 17.4058
1 28.3897 42.7198 39.3297
1 28.3137 3.81934 30.2371
1 30.7959 3.41195 29.2825
1 1.03069 20.8713 11.1492
1 3.24591 38.6138 6.09672
1 32.9715 11.5942 13.4343
1 45.4162 43.4629 25.6579
1 5.44941 31.024 49.4885
1 25.5226 18.5016 47.8333
1 19.3927 16.135 3.61639
1 32.7084 35.9301 13.3341
1 39.3166 44.7814 30.739
1 23.5435 48.0079 27.546
1 13.5101 34.513 28.5323
1 39.4482 3.29292 37.9689
1 41.0861 43.6799 21.643
1 43.7718 34.7891 19.6086
1 38.8526 5.30459 5.34208
1 25.8583 20.606 14.0313
1 44.8744 38.5146 41.2325
1 13.7967 43.3081 0.39532
1 14.7819 25.4242 25.4472
1 5.03104 31.2562 39.5899
1 36.6595 28.8691 25.8988
1 47.5472 44.0343 6.32954
1 1.59935 7.14617 42.6332
1 35.3172 29.2412 7.53195
1 6.09055 17.2775 47.4094
1 11.7929 32.5437 41.2204
1 47.4976 34.8748 28.7662
1 48.7427 9.08079 48.5772
1 17.9203 29.0981 39.6971
1 34.5984 39.8545 4.26544
1 33.34 1.31945 41.6187
1 7.88002 17.9971 38.8102
1 11.4708 11.1593 28.7762
1 10.9195 4.89349 28.1842
1 19.5526 27.5069 16.4788
1 20.5076 6.5779 11.6459
1 18.7778 29.8049 32.8863
1 32.839 7.9697 17.0582
1 15.9347 14.7858 34.1779
1 18.8028 27.9327 19.2129
1 33.8115 39.5822 37.0597
1 49.1399 32.9072 35.6115
1 8.87292 29.0275 20.5638
1 14.606 46.2993 8.70001
1 25.1184 8.0137 4.93107
1 24.842 3.02158 30.8338
1 40.2384 13.9416 0.606199
1 11.9185 28.9391 33.6664
1 41.6615 8.01914 9.3132
1 16.3568 17.0866 18.2636
1 2.58565 8.28647 10.1879
1 11.2364 1.85972 9.9871
1 31.7536 37.2248 3.35822
1 6.69376 6.40136 19.8669
1 9.0578 26.5514 27.2952
1 3.66023 25.3344 22.6324
1 11.8643 12.0646 32.8679
1 35.2821 38.277 7.17813
1 42.716 24.3068 20.4841
1 45.3683 26.1525 18.5124
1 35.1039 7.08471 22.6021
1 46.3629 8.50085 47.4551
1 44.9622 1.72397 47.9938
1 43.2193 20.1056 17.32
1 2.98843 37.5695 42.5125
1 44.0545 0.117657 45.7198
1 36.2238 44.8554 18.5444
1 15.3156 7.72952 36.5147
1 37.6303 10.363 29.4307
1 14.6883 44.3455 40.7245
1 10.234 11.262 26.4572
1 38.368 39.3879 33.6662
1 22.1502 49.2417 3.47409
1 11.6725 33.9863 44.5819
1 45.9615 34.8324 12.1499
1 29.0508 24.9096 11.6836
1 23.0046 10.0718 44.8392
1 8.78628 24.6705 21.7096
1 26.1452 39.3508 18.1497
1 3.61144 45.6019 19.0678
1 38.977 6.11449 15.6556
1 6.61135 46.5516 28.8734
1 32.2152 26.2308 21.1557
1 41.886 37.5403 38.7671
1 27.2041 12.9802 31.8509
1 44.0993 41.9834 27.452
1 39.0729 30.4805 29.6423
1 7.15494 37.2085 5.00827
1 22.9102 40.5961 10.3937
1 46.3185 16.9469 11.9933
1 32.5334 38.7368 45.4106
1 19.6493 5.72855 1.40254
1 34.1127 29.8233 31.5102
1 16.3496 5.74985 46.3501
1 3.25285 27.9063 25.0234
1 12.5148 33.6198 31.2243
1 18.4265 34.274 30.9925
1 30.7216 12.0301 25.4837
1 26.365 12.2892 38.6959
1 3.17024 15.4234 27.6369
1 20.8937 33.1186 34.2362
1 45.993 36.6804 23.2624
1 5.38052 15.6608 6.4076
1 9.69108 3.2754 31.8269
1 35.0011 15.1481 15.8077
1 34.3356 42.2527 2.94221
1 36.6083 14.8815 5.72366
1 46.0512 21.832 9.62646
1 2.75361 42.3709 14.3383
1 25.4779 44.6955 48.0837
1 42.785 42.9449 29.6373
1 7.07307 17.2464 34.7067
1 33.5732 45.2239 24.7868
1 6.44282 21.4569 26.7254
1 14.9872 0.928281 17.7054
1 33.2712 45.9987 0.311678
1 4.82085 14.9336 22.5323
1 32.1445 30.2284 38.2018
1 32.9635 10.7399 17.4618
1 43.0637 10.7567 43.7825
1 25.0957 13.761 29.7324
1 4.73843 5.89967 5.72818
1 47.1111 6.75102 4.48739
1 10.4395 26.3574 43.5336
1 33.917 33.9055 41.8587
1 48.4062 48.4683 48.6703
1 48.5095 48.2076 42.8142
1 13.5423 0.99324 21.8777
1 46.1391 41.2023 28.5853
1 18.9858 38.5125 29.1132
1 34.9381 24.0555 12.5173
1 39.0969 15.1537 8.21494
1 29.6674 3.61949 25.0249
1 2.58959 8.24693 29.2924
1 41.4775 37.7075 32.6248
1 25.7222 46.3935 18.8954
1 25.1975 11.1458 8.0228
1 36.2301 6.76293 2.10197
1 28.1911 28.5852 28.3645
1 35.3163 38.0918 44.5351
1 49.253 10.7493 14.7563
1 34.4285 45.6219 37.968
1 8.46465 0.780435 18.9538
1 20.3006 42.4123 38.6082
1 14.7688 11.1287 18.8128
1 39.5614 21.0274 11.4997
1 46.9796 1.87809 44.393
1 45.5125 0.929217 33.3194
1 10.719 45.5822 18.28
1 14.6517 44.8084 6.34583
1 8.78023 30.0235 16.6005
1 48.7673 9.23957 5.91689
1 35.7875 18.2093 7.23186
1 16.5417 45.8893 15.5792
1 49.5904 15.5098 45.7507
1 0.885384 22.9819 15.3769
1 17.1554 11.5616 29.4598
1 3.17144 6.25181 31.2395
1 36.9244 28.8723 39.0174
1 25.7206 47.4096 34.9042
1 4.20796 1.88227 11.1415
1 27.3186 36.2834 2.94437
1 27.7973 31.9918 24.5896
1 24.2519 18.5948 12.7572
1 31.299 36.1547 11.1937
1 14.7558 12.6704 24.9819
1 1.77435 20.8617 33.0703
1 29.6105 30.675 32.0173
1 28.1429 11.4636 25.7182
1 0.200479 30.6789 7.26963
1 41.7737 1.12195 23.216
1 39.607 6.73097 49.475
1 33.7641 38.5497 13.4004
1 29.5015 13.9558 35.7144
1 24.7861 9.49481 37.6548
1 33.8197 12.2878 4.72988
1 38.0815 30.2348 41.3425
1 42.7503 33.8636 35.1328
1 49.3281 21.3206 13.3448
1 29.6271 15.0504 7.12635
1 25.691 46.9338 1.92253
1 6.54885 30.8148 31.0076
1 42.7377 23.534 37.6586
1 47.6662 27.7858 40.9164
1 15.1489 43.4158 24.8004
1 42.1157 44.4041 -0.0809574
1 24.0889 48.4942 42.1529
1 25.7067 14.952 5.6661
1 40.4506 5.41077 21.6711
1 7.84342 7.73276 22.3652
1 44.0788 16.2195 24.5568
1 24.5873 39.0729 22.3271
1 8.79159 31.0436 45.797
1 36.3178 9.64521 15.0451
1 23.5088 31.254 23.1511
1 13.3013 47.2068 24.558
1 35.4791 25.7461 29.2806
1 42.0482 0.262646 2.9747
1 11.777 43.0492 18.5821
1 31.2101 37.799 18.1368
1 13.2441 35.9482 5.52745
1 46.903 49.1407 40.4378
1 14.6632 42.1947 7.44303
1 31.1746 12.7025 46.4304
1 3.81832 41.0387 5.43239
1 29.2473 28.4627 23.8911
1 49.2593 20.0248 44.969
1 25.2063 18.2703 2.66851
1 11.4208 43.9822 9.76462
1 38.2541 40.7707 20.316
1 44.1866 16.7232 40.5198
1 40.0661 20.4713 34.1317
1 4.50963 10.5484 23.6383
1 1.65899 44.6164 14.9628
1 24.3191 31.5926 47.7378
1 9.79548 43.1657 2.23825
1 31.6614 30.4911 8.96256
1 34.7518 23.1535 4.01744
1 24.4305 1.29258 47.105
1 5.27875 31.4778 35.2364
1 49.2191 36.2966 37.0472
1 37.9559 19.4047 49.2602
1 4.14744 3.66074 43.4743
1 27.8116 8.76491 19.3506
1 6.51323 45.2091 34.2562
1 26.0136 39.2925 49.3508
1 10.4097 5.31249 49.6137
1 47.1212 10.5037 42.5578
1 45.6102 47.0573 39.4973
1 36.6391 33.1562 43.9362
1 7.19222 44.9502 3.74643
1 13.4719 6.01864 30.1789
1 16.2265 23.9799 49.1136
1 4.11192 38.5314 28.7165
1 29.3833 34.2729 6.50668
1 2.28762 9.31498 4.24374
1 2.50847 3.99064 5.31724
1 23.5978 29.0491 21.1889
1 34.947 42.2264 22.4417
1 21.0634 11.4625 6.52851
1 13.7147 2.28536 13.2234
1 39.3659 30.302 2.18301
1 16.8084 13.5348 31.2928
1 1.9813 37.1964 45.0467
1 43.5093 18.0902 35.1947
1 31.7164 5.15213 5.57101
1 46.7096 22.407 0.718207
1 19.3438 35.836 28.761
1 24.1625 47.064 4.18143
1 43.3696 0.443979 29.8961
1 18.438 29.0232 23.8837
1 23.982 20.9435 11.235
1 26.4604 8.67387 28.1884
1 42.118 13.9304 47.5958
1 48.9737 1.66286 27.189
1 23.9289 31.6704 12.2529
1 40.7841 42.4749 47.1654
1 34.5893 13.0457 27.583
1 18.5195 49.2482 41.9569
1 34.8139 6.0451 16.5786
1 43.1575 44.2199 36.2459
1 14.5508 16.1528 43.9732
1 47.5216 24.8905 10.8982
1 47.5492 46.561 15.8362
1 48.8341 20.2038 32.043
1 41.9193 14.1276 20.1169
1 16.279 10.5097 7.02752
1 46.9475 11.5439 17.9319
1 35.0943 32.5929 7.11897
1 10.6278 12.4964 41.1637
1 5.55986 37.2392 26.7956
1 44.4942 43.4189 3.80612
1 16.6118 38.2845 45.2515
1 48.1359 46.7293 46.5455
1 46.5715 1.10047 14.6528
1 15.3254 14.6496 37.8534
1 26.5082 24.7945 31.7416
1 33.0706 4.15475 44.8552
1 27.4678 48.903 41.4583
1 3.03058 23.9143 6.07063
1 29.1267 10.2933 21.1711
1 23.4399 24.597 35.6485
1 12.0028 3.61351 15.0534
1 25.2304 11.095 4.82294
1 33.9995 47.1849 4.56371
1 14.2792 9.05797 26.6403
1 48.09 24.3398 3.82441
1 18.9774 18.0186 7.61216
1 9.49651 18.9227 40.5318
1 7.53003 36.2402 42.928
1 2.68925 42.5101 49.6223
1 14.188 19.8843 38.4232
1 42.6224 28.6854 12.6536
1 41.6542 13.1239 40.7849
1 8.50556 45.6036 14.6023
1 8.07099 7.10225 3.14426
1 39.0583 36.7905 19.1423
1 0.25751 25.7947 42.5856
1 20.8059 1.2814 41.271
1 5.49308 39.9324 49.0415
1 12.0393 35.8226 13.3751
1 45.3367 28.7796 36.469
1 34.8208 23.9832 33.9578
1 45.5011 38.8071 45.7814
1 18.5665 1.22278 25.9231
1 17.5699 12.1824 0.422494
1 17.0928 18.8437 20.5217
1 30.3683 27.1663 34.6014
1 36.5297 41.9944 13.3743
1 4.01872 32.5733 14.2164
1 22.6294 11.5685 4.48406
1 41.3261 38.2131 49.0461
1 31.3454 5.34233 7.98114
1 35.8312 41.0981 33.169
1 40.8496 49.2489 19.8815
1 44.4089 18.1801 10.5865
1 35.3677 35.5349 44.9791
1 36.2755 25.2778 4.86224
1 11.251 20.6261 35.7372
1 26.0064 10.4156 45.0665
1 42.3021 1.93234 44.3725
1 8.35759 24.8184 15.2672
1 2.93403 27.1011 34.6323
1 26.1068 27.9468 26.6036
1 24.3249 7.61325 11.8005
1 14.5723 9.84339 29.2508
1 44.6006 8.95448 33.8312
1 47.2694 16.201 22.5305
1 18.4887 30.7372 20.0271
1 5.06232 34.3621 8.11968
1 39.639 42.9233 35.0563
1 4.66605 0.959865 5.82194
1 49.1653 39.0663 15.4623
1 43.282 17.1851 3.93911
1 17.0166 34.4175 7.27572
1 31.8888 14.0986 44.321
1 30.6994 33.535 44.3593
1 37.4343 38.0626 9.20963
1 1.33237 24.5947 35.9448
1 11.9914 0.9192 17.8828
1 27.0843 7.4899 23.8949
1 27.5701 7.24148 5.88399
1 32.0161 0.807788 24.5095
1 34.7654 11.9491 15.8877
1 42.5426 18.7576 27.7144
1 32.0351 48.3609 43.9281
1 7.08041 35.1526 0.385816
1 28.2124 24.257 45.7682
1 44.5351 40.3456 7.46415
1 27.1077 29.0251 11.3932
1 44.6814 12.3732 7.35274
1 44.1819 21.3946 37.568
1 9.88412 18.5076 1.7192
1 9.5282 30.5035 43.2459
1 5.44614 13.6943 10.4118
1 27.5238 9.89681 7.19061
1 2.62122 46.3856 26.0281
1 3.39162 43.1463 36.5149
1 41.5342 26.7557 16.1605
1 23.0487 9.94678 22.5031
1 32.4881 41.4968 49.4416
1 18.4757 7.60433 43.0794
1 31.8762 45.6201 44.3536
1 4.41054 14.6238 13.2016
1 41.5149 43.7167 10.707
1 6.53958 12.9009 13.8284
1 16.2942 28.2257 41.9211
1 19.1048 35.3472 42.412
1 15.0267 39.2453 31.3531
1 35.6987 44.9598 13.5107
1 35.5095 28.3849 28.1068
1 32.3614 34.1299 15.2708
1 16.0317 6.55191 29.6104
1 7.89766 8.54893 45.7427
1 20.306 24.5267 16.32
1 48.4031 35.5804 18.9558
1 46.2277 30.4985 11.8062
1 17.7128 18.2349 28.0823
1 20.5511 11.0384 47.4909
1 10.8865 31.3245 30.681
1 17.6022 5.99206 25.2655
1 15.0225 7.97057 15.2415
1 25.194 25.2659 39.3974
1 11.5153 11.3501 38.8516
1 15.8934 5.84924 34.4519
1 29.5287 21.4544 8.39274
1 9.67197 29.9139 48.17
1 41.2991 11.7763 21.3283
1 32.091 1.55157 46.1017
1 43.0737 43.9983 33.423
1 24.8779 34.9065 6.32685
1 48.538 32.3862 16.275
1 0.313174 32.8672 11.0299
1 33.7787 31.6741 33.6169
1 23.3139 28.3038 32.0241
1 11.9314 2.84316 42.9226
1 42.8441 10.407 10.2502
1 44.0516 28.1318 21.8685
1 7.60351 9.44369 34.7087
1 26.7904 42.0687 30.5503
1 26.9215 12.8972 49.196
1 5.5392 16.75 39.6687
1 3.0696 6.78755 14.4517
1 7.14208 46.5717 7.63111
1 44.6742 36.5727 13.9009
1 20.2702 4.35771 19.9672
1 2.07365 45.5123 23.5446
1 46.7837 11.3647 20.965
1 40.296 47.3454 34.9466
1 7.41884 33.7196 9.30175
1 3.67569 34.6482 17.9466
1 9.90315 46.5306 43.6842
1 46.2529 22.8787 47.1057
1 41.785 45.7878 23.6427
1 9.68546 24.8484 46.6544
1 11.9705 9.94791 5.78369
1 38.0672 6.20763 34.5148
1 6.14194 9.9332 49.568
1 1.51472 41.6896 44.6077
1 14.8788 49.0696 39.069
1 22.598 18.8583 36.7595
1 34.5047 2.19578 19.34
1 16.8958 6.64956 6.75944
1 21.6124 12.649 19.0511
1 44.6493 47.6246 25.4856
1 2.63287 47.9081 49.4587
1 17.7683 8.49722 28.9344
1 4.19385 31.237 1.98795
1 46.1616 17.1359 42.6732
1 25.2457 14.7629 45.5276
1 2.17483 11.0967 15.3086
1 42.8179 23.6749 15.2265
1 14.915 26.7576 35.3258
1 15.143 41.529 47.435
1 12.4081 26.7066 34.6603
1 11.1923 17.6607 49.1652
1 30.4025 15.1567 2.70421
1 40.9771 34.9393 47.5793
1 44.5719 30.672 34.5123
1 34.4955 0.235396 43.7334
1 46.3917 14.2242 20.3631
1 5.47733 9.71089 26.0265
1 37.4261 28.1177 46.1981
1 9.67549 31.6479 20.1663
1 14.5664 34.052 8.4206
1 4.37036 22.4035 16.7726
1 49.2724 30.3167 26.576
1 9.32434 28.029 36.7174
1 0.658743 20.0092 24.6709
1 32.6514 16.1306 3.53701
1 41.3241 46.5473 39.5083
1 17.4244 32.2349 17.9903
1 25.3727 47.2573 48.882
1 17.1282 40.7954 20.6776
1 29.9384 16.8616 16.5731
1 35.9083 37.1933 30.3081
1 3.82058 4.42009 37.8816
1 17.1812 34.3005 0.0974549
1 18.1853 41.1752 13.1923
1 18.6388 48.5619 49.41
1 22.7949 40.0868 42.9923
1 29.8572 48.9615 2.38763
1 34.1036 38.0289 2.08981
1 41.8504 31.8165 41.2062
1 43.3625 45.7719 7.06377
1 45.6724 3.99892 35.4433
1 14.9252 34.8243 3.75681
1 17.1448 8.36171 45.2978
1 26.1753 32.0521 33.8389
1 20.6903 20.2714 37.7776
1 37.7893 38.2451 5.71334
1 24.0919 26.5307 7.91063
1 17.1592 42.3929 15.4125
1 41.3069 26.766 30.1735
1 45.8387 20.2535 29.2682
1 20.4196 36.287 34.2762
1 12.8481 36.2977 9.121
1 11.8202 41.3297 23.3782
1 25.4815 35.7219 18.8104
1 18.1445 34.4723 37.6295
1 15.1619 39.2689 28.4444
1 31.9767 20.7627 45.4686
1 47.9324 34.8249 41.6774
1 8.99142 31.6993 38.7264
1 9.35864 19.8196 23.9641
1 22.2745 42.228 28.6027
1 10.3397 13.1379 30.7046
1 9.89517 19.2836 47.5402
1 41.0368 33.1772 7.02965
1 47.0484 41.0528 34.5248
1 48.2893 48.3301 18.3008
1 28.245 36.9139 15.8718
1 38.4071 11.9084 12.049
1 37.6909 43.5531 39.588
1 6.55049 40.7499 13.2668
1 27.6457 2.03903 38.3725
1 4.299 31.1531 10.0914
1 16.5987 46.7737 13.0134
1 10.4106 17.0025 5.71934
1 45.7239 26.5416 25.5339
1 3.12299 8.6077 18.2999
1 48.6707 2.75344 11.8075
1 16.3462 33.4779 23.1807
1 37.7336 43.8844 11.5475
1 43.1875 48.1583 8.08285
1 35.6608 8.85592 12.6471
1 2.37633 19.0089 17.048
1 24.6068 26.1557 0.955182
1 41.4452 15.2104 4.75107
1 40.4504 14.4032 16.9548
1 47.4045 36.2213 44.2244
1 16.398 45.3338 30.8695
1 30.1922 34.9325 25.6475
1 17.2164 42.7728 31.5941
1 36.6584 13.1705 25.7081
1 37.4289 43.6991 26.9496
1 37.5402 30.4982 15.0482
1 42.9109 43.826 14.831
1 36.6217 32.9649 41.2384
1 17.9182 10.4152 3.69645
1 36.2605 46.4927 24.1568
1 25.3939 42.7015 19.8489
1 46.1379 15.5607 31.7678
1 46.8276 27.7507 5.22187
1 30.9584 21.1716 39.9716
1 8.27574 17.5685 46.095
1 0.161251 11.9504 19.0521
1 18.5863 17.2542 1.21089
1 48.169 2.85646 5.20153
1 40.0215 39.971 6.86156
1 25.2536 17.0117 10.056
1 27.2904 23.4245 39.0296
1 6.81825 27.4634 13.577
1 7.724 2.18537 33.6024
1 43.5689 2.88081 19.5073
1 48.207 43.962 25.7274
1 27.1059 14.8593 27.5119
1 39.4914 31.1389 32.9404
1 11.7278 35.8305 20.7795
1 24.684 36.3361 23.3843
1 22.6904 7.38625 21.3098
1 48.4244 44.0362 1.30344
1 11.1473 47.3134 20.4058
1 3.16453 40.4836 10.126
1 6.02058 29.1671 28.509
1 7.13712 24.0794 41.4694
1 10.9368 22.6815 49.2656
1 14.0351 7.96143 9.60623
1 16.3232 38.1024 0.666505
1 36.9444 43.9868 23.2524
1 24.0181 44.417 45.7287
1 0.146534 23.3628 24.9891
1 2.09506 29.5389 35.2169
1 21.1179 42.9218 49.2177
1 5.48327 32.9461 3.92015
1 31.1461 12.9782 0.968947
1 20.1631 38.2168 16.3753
1 17.2091 3.1413 46.1507
1 23.9532 38.9435 36.0781
1 29.1393 0.310014 39.767
1 37.3633 40.1051 3.86708
1 17.4747 48.2519 22.5046
1 45.5257 2.93649 24.7101
1 30.8715 48.4138 38.0227
1 41.6784 5.66689 47.3849
1 25.9769 6.71635 26.2288
1 34.7319 43.2157 26.482
1 17.8901 11.6037 26.5212
1 1.02052 12.3637 34.8237
1 0.976667 33.7501 42.8939
1 30.5218 4.96571 34.2349
1 41.8926 28.2443 23.2164
1 20.15 36.3972 37.401
1 45.1787 32.4706 5.64694
1 9.54443 48.006 31.6871
1 7.44932 1.54649 21.1986
1 25.4501 1.17862 37.0218
1 33.929 30.7804 44.9293
1 37.4237 38.9403 38.8341
1 28.0213 33.1198 28.955
1 9.03171 0.545703 8.0779
1 15.0881 18.294 7.73708
1 39.5631 16.191 39.1329
1 42.9354 18.445 6.71013
1 33.2481 33.437 44.4661
1 36.6339 11.3636 33.3292
1 2.11256 44.4183 3.45739
1 48.6948 15.0104 2.06421
1 38.781 14.5235 3.02707
1 1.18279 4.01785 28.0592
1 3.40559 3.45006 34.1099
1 37.9522 21.0613 17.0026
1 20.4832 18.414 27.6567
1 18.3762 12.9703 39.5192
1 41.7356 36.3178 14.8476
1 24.1693 44.1796 3.88296
1 22.8574 48.8545 31.3729
1 7.88178 47.3195 2.7215
1 10.4174 42.8108 28.1617
1 45.9127 24.0845 34.1803
1 12.7486 26.5458 29.8086
1 25.6065 26.2442 35.5539
1 25.8756 24.4839 47.2532
1 41.8476 48.4899 31.6955
1 35.4753 7.27047 39.9404
1 5.34511 10.063 46.2614
1 22.5243 24.1133 22.2012