4096
 Atoms. Timestep: 1180
1 4.1482 30.7269 17.3712
1 24.3733 18.573 11.4528
1 34.985 3.90589 28.7598
1 25.9117 38.5613 12.8011
1 48.8806 8.98299 22.6941
1 11.2344 46.4057 28.2193
1 27.8601 39.4239 4.28409
1 37.8462 46.0778 23.5092
1 0.449394 44.1504 41.6965
1 42.2376 0.761433 26.8457
1 27.6687 12.1577 1.90723
1 39.6034 46.1352 35.5105
1 13.5036 45.072 8.99629
1 4.76864 18.733 28.669
1 31.5793 26.1504 8.07605
1 25.5618 6.29933 16.0735
1 37.678 7.66453 41.5644
1 5.07623 21.8 4.37884
1 17.1194 12.8076 20.5495
1 7.95029 22.2909 7.71659
1 40.0434 11.1098 8.58763
1 17.3811 28.8212 11.2627
1 4.19107 35.8215 40.7137
1 48.9666 17.6097 20.8159
1 14.3876 7.18693 44.2838
1 48.5853 32.5213 13.5041
1 7.01185 8.62346 17.3143
1 14.5328 15.1319 19.6508
1 9.19414 9.98164 28.9672
1 3.87563 43.8083 1.74976
1 28.6877 40.1038 47.3636
1 5.76182 6.96187 13.192
1 36.9606 49.3157 8.82365
1 9.36659 22.3464 16.8656
1 29.0916 48.6459 39.2713
1 7.67191 41.8822 23.217
1 11.3102 17.5855 0.440444
1 21.8813 34.1749 39.647
1 1.71607 31.4239 9.77343
1 39.3079 11.0846 15.8369
1 28.8296 35.9248 30.2265
1 38.1625 28.6441 19.8981
1 4.29672 43.0439 15.6906
1 36.0752 35.208 45.4546
1 7.07961 10.8907 12.8474
1 20.1381 29.9431 36.2295
1 38.6659 28.6763 26.0845
1 6.1763 36.0718 14.5687
1 7.56489 0.0874323 23.2453
1 19.5746 35.5751 12.3777
1 14.6715 6.66786 25.1414
1 32.6122 15.3478 42.3331
1 14.813 15.817 31.7348
1 8.92513 25.5748 42.1961
1 36.8187 18.9368 3.22608
1 32.8634 26.9032 33.7741
1 29.652 18.3109 15.9207
1 45.5612 46.8281 37.8948
1 32.9855 5.35096 -0.0212257
1 18.6361 25.0997 8.69982
1 33.1358 29.4525 31.3406
1 8.96417 41.5183 35.2697
1 48.3259 43.7531 1.77865
1 7.31822 16.0676 45.5648
1 39.7419 0.201334 4.40196
1 9.72154 2.13296 15.2967
1 38.4125 7.95711 44.4215
1 42.4019 10.8756 18.3777
1 16.3637 21.3181 43.3019
1 41.6602 19.3488 5.8626
1 21.3792 1.77175 29.039
1 28.7616 21.5776 23.423
1 13.5971 0.0999982 30.8698
1 29.9869 35.641 6.06387
1 30.4291 1.49386 23.3254
1 7.05646 2.22078 27.415
1 44.9698 28.8065 5.15318
1 18.6227 37.7133 29.8037
1 26.0453 19.6312 16.9568
1 49.5534 24.4023 6.44209
1 33.8083 6.82092 47.5061
1 31.0096 4.896 34.1236
1 15.1041 7.37043 6.93145
1 5.06006 47.1336 10.3309
1 37.4574 16.7982 12.8271
1 21.2046 0.0844162 41.1656
1 17.2288 42.5454 11.2298
1 8.45128 36.098 3.33189
1 2.90855 19.504 14.7223
1 32.1242 41.9895 35.7949
1 18.0778 2.10116 27.3813
1 8.80738 38.4568 13.9536
1 34.6489 5.7207 5.91877
1 35.7169 3.19666 18.7479
1 18.484 7.55436 25.1174
1 49.6056 14.2526 16.4531
1 16.3188 3.02234 32.3628
1 16.275 49.6731 0.148043
1 23.3119 6.11096 46.7652
1 8.15278 36.3958 41.7084
1 32.0533 21.3176 28.597
1 25.3141 15.9527 1.09991
1 19.464 25.4701 6.08906
1 16.3661 36.1605 22.5518
1 10.9449 1.10266 13.0599
1 39.9506 31.5502 23.457
1 46.3393 15.003 10.578
1 4.6095 7.70331 6.22341
1 38.5505 10.7045 43.4629
1 9.20923 43.511 46.0692
1 38.0495 39.3759 23.5485
1 16.2125 40.8606 20.2878
1 36.3212 28.4794 29.4045
1 2.40023 35.498 44.7942
1 29.1134 24.4724 8.34241
1 30.0954 22.3505 6.98307
1 27.936 26.7979 39.9582
1 43.5611 1.08562 34.3972
1 44.9544 22.8514 26.9099
1 20.9455 48.6411 16.4552
1 13.9627 29.4195 1.04479
1 39.5753 8.49872 16.1173
1 42.4331 11.3115 36.6091
1 19.9654 36.1813 3.32869
1 9.92352 48.6184 29.4333
1 39.3065 21.8437 26.2955
1 36.5505 38.8315 30.4491
1 2.60536 14.3244 16.5881
1 29.7328 4.87674 37.1044
1 43.8652 7.57437 5.37014
1 8.78098 36.0195 24.4533
1 29.9146 25.0595 26.8357
1 14.7149 6.29284 1.06103
1 19.015 37.3764 10.161
1 2.94545 7.70333 28.495
1 46.7328 33.7283 11.9189
1 4.65312 18.4749 6.35898
1 20.1083 40.7917 22.7869
1 40.7921 5.93121 30.571
1 1.25444 36.2865 15.0644
1 25.7424 13.4478 37.3833
1 28.9443 31.31 25.6214
1 20.0766 15.4761 44.4204
1 26.1683 44.3903 11.2103
1 48.6113 27.1252 16.8715
1 0.178828 45.1368 14.9683
1 4.52343 12.3628 5.05826
1 38.1094 48.9342 40.4956
1 15.281 22.6246 46.6984
1 45.3625 25.8929 5.94676
1 13.7023 18.3025 1.09982
1 37.0869 49.4099 20.0874
1 14.8785 20.4527 25.3829
1 0.927058 47.1732 33.4612
1 3.78801 28.1399 16.7696
1 46.8297 49.4202 17.3921
1 34.172 7.36562 35.4362
1 20.8956 9.61296 23.8841
1 30.9715 45.5443 3.57264
1 38.1013 13.5083 1.6485
1 29.7837 49.0073 45.7461
1 14.7277 2.60634 4.41383
1 48.5741 15.8594 33.8148
1 25.7932 13.3656 6.11447
1 38.5693 4.88768 9.31083
1 0.45001 47.0018 9.01205
1 35.3189 8.33483 12.7644
1 39.0012 31.1166 18.6246
1 36.6399 45.1733 9.07076
1 25.0158 12.4878 44.6854
1 34.0007 9.13518 24.6584
1 31.0868 32.4505 43.9286
1 10.8078 9.56916 21.9685
1 26.4782 27.5668 43.7209
1 36.5909 38.7511 12.7553
1 23.5035 39.6162 5.90088
1 11.6953 9.67944 3.08754
1 21.7487 49.6907 31.163
1 21.7879 32.7525 33.9236
1 9.07101 33.9191 38.03
1 48.584 19.5216 26.7153
1 15.2138 9.88157 5.99284
1 32.2059 44.0876 30.8404
1 11.7404 22.0967 49.6214
1 10.2166 4.13816 33.8616
1 29.9111 28.6379 36.4519
1 23.1713 10.6892 38.6781
1 8.50445 26.7252 21.294
1 28.7519 46.5048 41.0259
1 7.94084 4.79396 4.46375
1 47.8342 35.1932 43.9155
1 13.8729 34.5448 36.277
1 35.213 27.9968 41.0693
1 11.1324 49.1376 0.462928
1 46.9356 9.05401 20.3321
1 24.753 48.8396 42.8965
1 48.1797 6.58183 11.9048
1 37.3115 26.0076 17.584
1 31.6126 23.8875 28.5226
1 3.70906 16.6418 26.8988
1 24.3449 13.9139 20.8827
1 13.7885 12.0437 7.02604
1 3.69024 14.2278 19.5439
1 46.9387 11.5847 19.1834
1 44.484 8.08356 0.724527
1 10.5069 42.0694 14.0143
1 21.6351 15.3685 6.43469
1 44.1838 38.044 9.02315
1 28.0826 46.7712 15.214
1 26.3145 21.4217 27.5488
1 39.4521 44.026 30.7911
1 44.0393 47.0789 24.4289
1 36.5294 17.3243 40.8275
1 6.13827 43.5859 46.7256
1 20.1576 39.2981 11.9699
1 0.847549 8.26425 19.1407
1 13.3677 30.2529 27.319
1 29.2682 33.4152 21.106
1 3.43443 9.06292 1.74428
1 44.6917 5.29459 4.06046
1 23.7997 41.6853 17.1008
1 10.6405 38.6992 0.209828
1 34.9209 9.00555 1.95778
1 19.1323 5.73594 44.9119
1 29.0256 31.4485 14.8584
1 18.3963 21.0143 9.83702
1 25.7528 24.8675 38.0094
1 3.16129 11.5743 18.5871
1 21.062 12.3999 4.2729
1 22.575 42.3801 48.1639
1 24.4267 25.2794 7.13461
1 28.2848 37.7641 14.1606
1 26.1555 22.6968 19.2278
1 22.4439 7.05389 24.2881
1 34.0748 19.3023 38.1435
1 30.7818 34.9759 16.8121
1 12.8372 22.5764 31.17
1 1.3468 4.75821 7.18947
1 0.332467 21.917 4.72438
1 45.3107 29.3349 43.6837
1 39.5054 18.8493 12.463
1 17.7245 44.8794 40.3621
1 31.531 20.2919 33.8263
1 47.3417 12.1367 14.679
1 12.6541 42.1578 48.5357
1 7.47679 17.1461 25.0989
1 18.5502 36.6762 18.4168
1 15.654 33.7855 44.79
1 37.1933 2.82488 8.05364
1 25.002 6.76638 25.4891
1 41.8519 37.4345 0.988398
1 21.4151 17.2633 1.58304
1 40.4508 45.3512 24.1766
1 24.4523 15.7509 39.1757
1 5.94411 15.9773 19.2773
1 11.991 38.411 47.4259
1 41.9761 17.0803 22.7632
1 49.5023 9.07071 8.9212
1 43.2956 26.0347 44.7245
1 46.2942 44.72 42.5813
1 21.8128 12.2406 23.541
1 17.1982 16.7524 2.82004
1 31.2285 7.74911 35.3513
1 46.8129 12.5192 43.6405
1 48.532 48.1864 12.7991
1 4.38101 2.54252 19.6845
1 23.2204 18.5944 15.3374
1 17.3971 37.17 42.4112
1 12.9866 49.4042 6.19705
1 45.4421 30.6308 34.4139
1 8.8035 37.4855 26.7293
1 36.3956 19.5004 24.7177
1 44.7625 39.596 4.69132
1 12.0317 16.4248 7.75502
1 16.1266 29.6045 49.0074
1 3.01308 28.0653 2.15982
1 48.0584 38.9839 34.9371
1 33.0071 21.5225 31.1157
1 28.9904 46.8523 44.057
1 2.25628 46.4861 42.8864
1 23.2802 10.3038 44.7178
1 13.1808 24.5637 16.4516
1 0.412779 5.88149 46.4189
1 13.8092 25.2291 28.0621
1 21.2417 3.66332 11.1999
1 14.0498 20.5943 9.85153
1 14.9011 12.8347 3.18907
1 45.2019 43.4553 27.0864
1 3.6565 28.9306 21.134
1 30.2195 20.1763 26.8866
1 40.8031 15.8521 40.7218
1 3.04357 27.0008 46.8654
1 42.3674 22.2977 35.3122
1 7.44399 41.1539 42.8653
1 38.8328 14.1013 41.8781
1 40.7864 28.3441 3.35105
1 40.0001 13.5672 14.4058
1 28.457 29.3077 42.1856
1 41.7526 18.1827 27.0867
1 26.0015 4.91425 41.3268
1 4.09538 35.9711 8.03384
1 11.058 38.4154 12.7183
1 29.1542 44.3565 16.2755
1 22.5835 11.6163 27.8962
1 0.21689 47.1555 40.7776
1 38.4523 16.2449 8.33498
1 15.2378 8.20512 16.7685
1 45.945 10.0893 13.9427
1 8.81992 8.98343 13.6693
1 15.2379 28.8529 41.7953
1 3.95495 35.4576 31.1084
1 38.6186 14.4574 49.063
1 5.78614 45.3643 37.7329
1 36.8422 48.0922 11.318
1 44.0534 31.5133 25.1675
1 44.5935 33.9331 1.90062
1 38.3158 4.43127 3.36662
1 3.62883 15.475 8.21813
1 36.1821 14.9034 36.8516
1 20.8569 0.81 25.341
1 45.2801 17.4459 11.3677
1 32.7423 23.7944 2.89938
1 45.9035 24.8124 38.0124
1 4.30795 40.8403 28.6217
1 6.55848 44.5336 29.1754
1 1.52081 29.0508 40.8035
1 2.24972 37.0631 36.6832
1 48.2393 14.6126 44.5806
1 38.4132 14.4436 12.3025
1 49.5997 7.42657 2.15416
1 30.4708 29.6017 20.2054
1 21.6423 11.0954 16.9222
1 19.0628 38.7107 21.6616
1 25.6704 44.156 27.9977
1 41.8736 13.3301 9.34749
1 36.5846 41.6873 6.06444
1 44.2831 36.9245 32.8988
1 45.6946 48.2308 43.4522
1 3.81774 43.2472 33.2983
1 49.04 8.32259 34.9084
1 14.2539 49.4447 27.3544
1 48.3299 22.1575 32.3339
1 3.31102 24.8564 42.7209
1 0.509736 4.28526 38.5051
1 34.6032 16.6537 34.6485
1 10.2894 16.2588 11.7206
1 2.43686 7.22311 25.8378
1 44.4499 8.22186 42.829
1 30.3743 31.4347 36.9828
1 28.5757 18.3978 6.42855
1 20.7916 7.37008 6.56293
1 36.9987 14.8058 6.39434
1 45.1413 30.1212 10.2902
1 18.3212 23.486 45.5957
1 1.95714 31.4539 39.9933
1 40.8836 23.941 31.0551
1 2.99226 12.5478 33.7035
1 9.77133 7.33007 9.87216
1 3.08095 8.91078 23.8125
1 19.9328 0.236116 22.8473
1 13.2321 25.9677 18.8137
1 1.17947 39.5424 31.4546
1 20.0772 10.2727 47.9891
1 16.8877 17.8745 43.7565
1 44.455 36.767 23.1551
1 17.9084 31.2139 39.4741
1 14.1611 8.06015 10.0613
1 32.0079 14.3365 18.3505
1 18.3077 15.2362 21.8549
1 6.73865 20.7647 26.6326
1 48.3671 46.8892 18.0949
1 36.7098 13.0249 46.478
1 15.1223 1.88448 17.1112
1 29.0571 12.6981 42.9028
1 47.4921 36.6752 40.2712
1 37.9333 37.9113 20.0544
1 6.62127 37.4692 9.53829
1 35.4685 42.927 47.5561
1 17.8191 13.2462 7.77012
1 14.4251 15.6796 46.2236
1 12.9791 18.2663 28.9865
1 48.3887 40.0824 43.0716
1 41.2186 42.02 37.4928
1 3.27961 2.69418 12.1164
1 32.3172 43.0707 0.833622
1 7.49351 46.1597 33.9029
1 15.833 19.6345 6.0148
1 38.2888 10.0871 27.4348
1 16.0215 5.90905 34.0911
1 30.4442 46.3313 11.3992
1 8.96124 14.0071 46.5342
1 14.2594 16.9288 17.105
1 7.29817 28.1251 26.0781
1 44.3216 27.2182 26.1811
1 2.50722 44.9881 45.531
1 19.9835 3.83193 33.1365
1 24.4797 39.1816 32.8204
1 23.253 22.2219 47.4653
1 45.5967 18.6028 3.43105
1 41.5794 9.59403 40.7719
1 38.1427 36.8414 46.4344
1 11.1866 17.1583 26.9894
1 27.5852 3.2152 20.8576
1 14.8094 27.3003 5.49779
1 4.46442 42.0404 49.5411
1 16.2388 26.6635 39.9849
1 34.7741 12.414 28.1708
1 40.3727 41.6251 6.63611
1 16.2837 18.2901 15.8331
1 20.689 23.0574 31.5858
1 18.1133 26.0364 11.6235
1 8.07067 1.49228 39.7094
1 14.6588 40.0422 7.61815
1 13.3313 44.0111 34.9352
1 37.9771 48.8594 26.1992
1 11.7425 1.89669 39.8317
1 32.6675 35.5965 25.2761
1 15.1599 22.7904 37.4892
1 5.22718 36.1454 2.02123
1 0.402626 13.1195 1.51935
1 17.5241 49.1625 22.3366
1 29.2061 7.48755 39.9645
1 23.1381 17.5782 27.0516
1 2.22462 10.4292 29.4745
1 19.8816 22.9444 24.3877
1 25.4626 3.04091 1.64081
1 8.65927 10.5309 46.4389
1 8.11661 30.6495 30.7788
1 5.9473 41.4855 25.6456
1 1.65451 19.1048 23.6689
1 27.137 10.4653 29.1726
1 35.0081 6.86283 27.4886
1 28.6593 42.0784 31.2494
1 42.5707 35.9779 5.41672
1 39.2787 17.1237 15.352
1 15.6271 3.80639 2.22509
1 25.1364 27.8536 23.3151
1 32.6007 37.4726 22.9581
1 27.2312 48.5211 30.0133
1 14.7908 23.4433 21.6107
1 0.859262 45.3653 27.7514
1 36.9082 7.20329 6.73791
1 46.6206 3.91977 5.27442
1 27.8849 15.7697 42.5413
1 48.4554 39.4646 40.2865
1 36.1007 19.9332 29.1261
1 1.60626 26.9632 24.532
1 4.41455 33.0329 9.50703
1 23.0248 4.23188 3.68086
1 31.5397 33.8451 13.9637
1 44.1793 2.60076 20.1512
1 20.7444 42.7377 40.8848
1 9.88168 32.8609 30.4124
1 14.6079 10.8965 36.8271
1 8.57367 40.4923 27.2139
1 31.096 9.93993 20.3491
1 18.626 32.256 15.4291
1 16.9873 8.18827 14.7979
1 7.7851 10.4435 7.33817
1 38.9847 29.3788 22.5238
1 44.88 36.2605 37.4343
1 1.45184 18.6476 35.569
1 8.08426 15.8094 6.80583
1 8.34464 6.74402 30.8426
1 23.7589 6.76634 13.1046
1 33.3371 48.7095 27.5639
1 21.3549 22.5391 21.739
1 0.732641 47.2149 1.2368
1 17.4433 46.7143 10.3206
1 46.0073 33.0932 4.11488
1 35.1614 35.2123 28.4377
1 27.2248 40.3184 45.1848
1 11.5012 29.9738 4.56915
1 25.8452 22.7559 48.2043
1 22.2175 16.6758 24.401
1 44.482 11.179 1.44151
1 8.9542 32.338 14.4972
1 44.5005 5.35418 37.4886
1 5.15308 1.55594 15.9068
1 4.29795 5.2648 32.5391
1 37.77 9.26505 2.80019
1 47.3658 18.5968 9.81758
1 36.9894 7.51479 16.9075
1 6.84164 5.5856 41.8911
1 1.91611 6.27461 30.7366
1 23.9615 33.1319 43.0395
1 42.7731 40.1562 26.7232
1 16.1735 8.99441 45.4949
1 31.0855 44.2567 22.898
1 45.6409 32.3845 38.6072
1 6.34331 36.7865 27.5705
1 16.9649 21.5488 29.9688
1 7.23975 30.129 20.4521
1 25.7672 5.02358 46.9246
1 19.6881 29.5908 40.5515
1 13.1126 27.7906 29.331
1 6.78217 48.1734 32.5583
1 2.69627 43.1001 40.7295
1 3.2199 9.52862 34.8832
1 37.7145 44.4407 45.1913
1 30.9369 49.3392 29.2758
1 5.70976 30.5169 13.349
1 11.7935 10.4616 7.3294
1 12.2745 40.9513 31.0785
1 29.9299 39.2686 18.5448
1 3.98582 30.7816 47.6305
1 5.74788 37.9298 49.5038
1 2.4063 0.928413 44.7498
1 13.7405 47.4272 40.7429
1 17.4186 37.039 26.1151
1 16.5948 48.1698 14.4603
1 16.1085 3.2135 37.3708
1 43.6048 18.5556 42.8502
1 7.50292 43.3688 33.4656
1 43.7108 16.8314 28.1104
1 2.95126 9.50555 46.054
1 15.7339 24.2968 41.635
1 12.118 42.9133 29.3234
1 44.2036 5.39788 49.402
1 2.086 3.52735 48.8627
1 37.165 24.9991 5.87367
1 25.8293 12.259 19.2831
1 37.1523 24.2498 27.1216
1 16.1076 14.9654 44.0376
1 4.4426 5.31081 28.4658
1 34.4522 39.1618 2.4144
1 21.6473 32.5103 10.7924
1 47.1632 14.8591 26.1594
1 43.6432 7.49087 38.9915
1 36.1855 17.3594 9.2716
1 36.8506 41.3835 27.8469
1 22.4359 32.5422 48.8647
1 33.1799 29.3214 35.1393
1 21.5664 39.5875 44.821
1 39.4471 20.3869 10.184
1 41.8034 44.0267 5.68194
1 33.8605 9.10913 41.4796
1 45.3913 39.5773 35.4206
1 32.0492 18.2147 17.1902
1 11.5869 0.448595 27.933
1 41.8177 31.3447 35.9258
1 4.22421 10.0411 40.3053
1 6.18602 48.2662 21.6744
1 32.0135 49.5169 8.61349
1 6.51649 6.89357 27.3186
1 31.3636 30.6073 27.0746
1 34.0433 26.3853 3.09946
1 0.517855 13.9755 32.4334
1 1.43027 16.4767 31.1309
1 4.33035 43.2027 20.972
1 34.7576 16.2828 29.4215
1 27.9678 1.90938 26.7535
1 5.27269 23.3929 44.5377
1 4.81585 28.4848 6.55301
1 14.7842 41.9437 24.0186
1 3.84865 47.142 23.2318
1 34.6189 43.751 12.8701
1 2.40721 9.9844 7.07046
1 4.52768 32.045 2.97712
1 2.6999 5.08478 44.9645
1 34.5719 46.6057 0.375926
1 46.2588 14.0763 0.00959907
1 38.6012 24.3191 43.7389
1 30.3493 29.5065 32.2939
1 34.4702 32.6205 20.0596
1 5.88759 29.3921 49.1318
1 48.654 31.6628 9.33881
1 17.2393 43.7578 42.8259
1 1.16742 47.7304 16.5453
1 29.714 19.4739 37.6749
1 43.619 2.93477 27.1953
1 21.1393 19.5659 43.9483
1 17.1016 46.0876 28.161
1 12.0169 23.7236 22.5945
1 5.10513 5.70827 23.2153
1 34.0458 35.0195 14.5521
1 9.2897 2.55453 43.2332
1 12.4939 33.2686 7.76264
1 0.226784 1.98409 2.32318
1 45.7839 0.793724 37.8258
1 44.5049 43.5349 48.9747
1 41.494 8.59994 1.26122
1 11.2705 20.2762 47.4125
1 47.9527 32.1867 30.6461
1 9.89813 18.9177 15.1749
1 22.8649 43.0426 2.98838
1 5.48688 39.8997 41.1971
1 13.2479 48.429 34.0369
1 26.4237 12.1824 9.66925
1 14.3426 4.89887 36.2356
1 6.15584 24.7962 15.2748
1 0.512316 5.2676 3.07271
1 23.8364 27.5461 6.06242
1 30.3565 33.7405 48.4131
1 35.0687 26.7389 13.3484
1 11.2518 46.7663 11.7012
1 46.0172 14.2097 22.5649
1 0.222406 43.5429 25.7624
1 15.6725 35.7781 27.686
1 49.0744 12.2239 12.2675
1 37.7127 25.6376 20.0606
1 31.9946 24.4257 20.1002
1 16.3245 19.4328 8.58145
1 9.8899 0.249563 46.921
1 16.07 43.9418 1.54569
1 40.0798 0.732211 13.7082
1 18.6001 32.6404 20.1243
1 37.2526 5.34441 26.7231
1 15.8285 48.1509 47.547
1 43.8532 34.9855 34.8432
1 11.5734 18.3773 40.1948
1 30.255 34.8271 36.4889
1 2.58391 11.5714 12.323
1 40.9605 3.72855 1.47707
1 13.6059 38.3919 44.0985
1 16.2381 35.2521 15.0145
1 30.3293 3.57812 8.37183
1 46.9875 8.24548 44.3951
1 4.49102 43.5668 27.4162
1 21.018 34.1416 31.3039
1 6.32832 49.7289 47.3816
1 27.2604 9.3978 6.15132
1 14.5058 43.9676 43.418
1 37.4385 8.8337 29.7812
1 7.96979 40.8442 30.1242
1 1.65072 3.55923 23.2888
1 27.6016 27.46 11.0845
1 3.05067 14.8879 44.6044
1 40.628 26.5898 6.44827
1 25.5472 47.2676 12.1658
1 47.1135 0.048718 31.3732
1 18.0705 5.87185 29.0287
1 15.6099 16.5202 0.769175
1 8.68464 6.38206 14.0532
1 39.7287 48.2995 44.8182
1 -0.0328749 46.7731 45.4041
1 21.0241 23.2356 5.49324
1 2.56835 44.1768 29.4438
1 42.8243 43.8078 18.9503
1 13.3504 26.7512 45.8254
1 1.42128 41.3562 48.1303
1 2.51422 17.2654 16.5623
1 45.0964 25.2983 42.8409
1 13.2668 4.38081 22.875
1 1.23912 47.3833 13.4263
1 45.9104 2.14142 11.0544
1 26.5277 35.6709 40.6628
1 8.14361 7.24543 22.6411
1 43.0913 18.358 9.95474
1 17.0564 38.939 47.2244
1 39.5344 18.7885 7.64532
1 7.49374 8.19533 45.5797
1 5.63499 21.0891 19.7133
1 27.0683 15.4227 45.192
1 37.9605 28.2906 41.6854
1 42.3269 13.6302 26.0481
1 6.77687 37.8525 37.6179
1 38.5209 7.91893 25.9034
1 5.30429 7.41934 34.2924
1 19.1327 44.0342 24.4367
1 34.4662 41.5664 29.1787
1 16.2581 17.5205 19.7988
1 5.30447 10.56 36.722
1 45.3342 11.0325 5.00717
1 5.90212 28.251 29.8605
1 31.3563 44.8253 41.6866
1 26.9551 42.3407 24.1057
1 17.1243 45.5188 3.44013
1 27.627 5.39368 34.2654
1 48.3891 44.2603 39.5121
1 21.8479 3.95699 31.1325
1 21.1216 36.5628 43.2017
1 12.886 13.4233 4.96236
1 11.4912 11.3215 38.2423
1 10.985 43.2307 2.05261
1 37.2348 30.7097 33.1889
1 17.5008 17.206 32.3557
1 29.0696 40.839 20.4569
1 27.9781 32.8756 35.2993
1 11.6608 37.8715 18.5977
1 19.9588 9.26589 8.1051
1 20.3645 14.4775 48.3767
1 47.5735 42.4311 15.526
1 38.1457 30.421 15.892
1 11.6187 23.9272 26.8651
1 43.8946 30.9228 3.2908
1 49.0657 18.1142 45.3588
1 4.76879 8.02252 15.4684
1 35.1568 49.5356 36.6724
1 26.0924 43.1989 13.5478
1 27.3009 39.6515 32.9669
1 44.4496 39.0365 21.608
1 21.0687 38.8506 6.82691
1 31.9705 12.7893 42.6857
1 26.5223 30.3661 8.65564
1 7.59067 13.8802 34.0984
1 9.13331 44.2175 49.8286
1 5.58106 18.0387 3.82878
1 8.95435 29.0322 18.676
1 1.90938 28.5434 6.62856
1 9.03905 49.8171 17.0417
1 44.34 43.1798 22.8182
1 49.2619 3.43425 8.7256
1 43.0894 34.0102 19.1587
1 15.4824 30.8477 39.8748
1 19.5439 23.3301 49.1556
1 20.5167 0.0813287 11.8755
1 18.5139 18.9399 2.03642
1 7.27453 43.4102 5.64179
1 3.71958 40.3217 16.0899
1 26.393 21.7756 4.52249
1 49.5205 16.171 14.4734
1 38.6232 23.4023 37.1753
1 25.1209 41.309 42.75
1 17.7829 18.7761 48.9626
1 1.29397 9.8486 17.2141
1 35.105 6.67562 38.1472
1 19.6522 3.86083 13.2553
1 48.4077 15.7131 22.604
1 40.9262 34.194 12.925
1 25.2632 25.032 31.0654
1 39.5747 23.5264 9.37805
1 41.0021 7.65984 18.4254
1 35.4909 18.8364 42.7778
1 2.29017 19.4532 29.2603
1 48.7723 49.1602 10.2685
1 8.07102 28.0259 41.4598
1 5.19995 32.6432 6.8785
1 17.096 15.8545 6.64895
1 31.7479 11.3098 17.9571
1 8.78221 20.1102 34.4998
1 20.9941 45.1898 30.3821
1 47.6865 32.4451 16.1362
1 40.6288 10.1783 23.9182
1 29.6475 37.2294 43.9855
1 2.54088 4.26686 42.3218
1 32.0765 29.9532 0.790428
1 0.793657 25.6135 39.6178
1 21.3146 1.46961 46.9378
1 24.6814 48.1398 26.2988
1 45.1835 5.53465 46.2692
1 35.6708 33.4336 30.707
1 5.67541 22.6194 36.4727
1 36.053 19.1826 16.1258
1 41.9227 29.0042 37.369
1 37.0237 29.1506 1.19757
1 11.7281 30.5694 17.8886
1 27.1485 30.3071 35.0502
1 30.7115 15.1334 0.481408
1 16.2743 44.2018 24.0659
1 33.6899 27.212 15.8238
1 -0.272251 8.29309 5.00236
1 2.21624 1.22276 8.69617
1 5.77307 27.5237 22.5228
1 24.5347 2.98904 31.6784
1 8.73149 8.00973 5.88001
1 34.2588 30.7968 39.5572
1 24.8329 5.57663 6.43344
1 31.2685 49.1782 1.10522
1 23.3126 11.2619 5.44722
1 29.2957 2.6241 17.5344
1 10.1625 22.9649 9.40386
1 10.8086 7.91633 20.0855
1 35.1222 9.7515 27.2576
1 40.0469 9.10609 12.3437
1 24.0474 28.5949 12.3805
1 43.4901 17.096 17.3898
1 16.3321 22.8732 2.06761
1 40.706 20.0392 14.7921
1 29.7041 13.2844 26.0786
1 16.4833 6.45524 41.1653
1 47.6435 29.0665 10.3767
1 24.8925 46.3539 3.05586
1 10.7891 45.6967 37.2682
1 10.0306 33.4284 24.7596
1 40.5627 37.2816 11.0579
1 7.48434 33.2155 0.244316
1 45.7283 1.62667 25.8846
1 7.21765 45.1031 9.77456
1 30.1748 28.7957 46.3368
1 39.0522 44.2039 12.3824
1 17.7015 25.9189 4.0034
1 12.0808 24.5637 0.0968916
1 22.9245 23.132 16.4323
1 34.3314 8.41055 10.2909
1 9.12957 0.995397 21.1133
1 41.5957 20.8995 1.47985
1 4.18159 24.5732 8.16833
1 45.6045 30.581 48.4199
1 19.0019 1.99875 34.838
1 41.6721 16.0049 45.0501
1 31.9674 40.1109 44.6094
1 1.44034 20.668 26.8017
1 8.97072 46.3182 7.91894
1 35.6705 29.2435 18.7015
1 41.4313 36.2753 35.7718
1 48.0864 15.382 37.6342
1 7.39857 43.8386 41.7329
1 17.5776 27.0624 15.3808
1 8.91802 49.6636 11.6026
1 13.9415 10.3116 29.4029
1 38.7854 1.74638 11.7319
1 32.0334 14.8484 6.72536
1 14.4323 5.85681 11.5525
1 10.5166 4.01577 4.06193
1 0.513394 13.6143 41.2385
1 3.70584 5.49805 36.264
1 6.35751 11.1215 48.4221
1 21.0444 33.963 20.5421
1 36.2028 20.427 0.991538
1 17.0526 33.8459 3.42367
1 34.7374 26.8509 5.79338
1 39.5209 14.8203 44.5938
1 34.4642 21.9396 3.27332
1 26.525 32.761 7.75319
1 -0.0536117 29.8945 49.0084
1 49.5209 15.9167 42.501
1 43.1205 33.5474 32.3265
1 25.8168 20.461 2.43095
1 24.7228 27.1727 17.7537
1 9.02606 2.82298 9.35145
1 7.76386 34.9932 33.674
1 0.902228 34.0888 33.4134
1 22.0873 35.8333 12.8724
1 29.4802 18.8669 33.501
1 21.8837 16.7759 29.5069
1 13.6765 9.33674 47.217
1 14.1779 32.0398 43.063
1 1.54531 36.4379 40.7134
1 5.65075 3.07661 23.3998
1 44.7686 21.864 45.3839
1 1.52727 9.80381 21.3592
1 43.9965 22.2758 22.2401
1 7.5728 47.7828 39.596
1 11.3064 32.2979 1.8711
1 28.5639 36.5827 22.1012
1 10.802 10.7263 42.906
1 32.6695 37.6228 47.8586
1 3.66176 41.6527 4.96174
1 11.108 21.2246 23.6587
1 4.54527 43.3772 12.8815
1 45.7239 24.6317 1.4973
1 44.793 24.8711 22.5908
1 48.7941 46.1303 29.5863
1 46.2569 35.4621 28.919
1 38.905 37.4353 31.6403
1 41.3651 5.10076 35.1369
1 29.0905 34.5768 44.2933
1 4.74003 20.1512 2.45347
1 34.8032 38.7029 33.7082
1 33.2556 40.5916 40.2561
1 9.66963 40.4073 3.56192
1 6.02201 49.3764 11.3364
1 26.2055 25.6504 49.2862
1 5.25543 5.03363 0.599436
1 15.5447 47.2383 12.1432
1 2.30485 45.2322 34.6752
1 6.2632 11.5513 43.816
1 0.978997 7.24173 11.0801
1 2.10424 11.948 49.3757
1 10.5243 7.87722 1.79951
1 23.9748 35.9063 26.3876
1 20.2484 18.5152 39.2781
1 40.4479 41.4851 47.4856
1 11.6625 8.44781 37.4642
1 7.18115 24.0852 27.9148
1 36.3341 34.9297 5.0431
1 47.3341 27.2549 45.9981
1 25.2683 31.5379 37.5217
1 16.1603 1.44439 40.8085
1 8.24375 28.2844 38.6737
1 5.38064 21.9683 8.51049
1 3.39824 24.5586 1.11099
1 49.1016 21.656 14.4326
1 28.3751 18.163 13.2952
1 36.8713 11.2974 39.5158
1 48.5131 34.9009 31.3117
1 16.4042 28.7305 24.2988
1 17.8386 5.45461 19.0866
1 41.7443 25.8364 32.4724
1 40.7676 32.2792 0.993539
1 10.8262 1.37213 23.0309
1 41.5024 15.561 18.7447
1 34.44 2.19473 12.7482
1 22.0307 36.043 17.2923
1 32.5617 27.195 0.670972
1 3.42992 27.4079 44.0287
1 42.8117 32.1944 6.98721
1 12.2783 23.562 12.913
1 35.1778 31.897 41.8988
1 1.28696 26.1454 13.917
1 37.5821 11.2932 31.3489
1 -0.00427873 13.6094 8.14604
1 1.09793 21.12 7.35336
1 49.1453 38.3628 15.3582
1 43.5882 23.338 41.3629
1 18.8086 8.32576 44.4799
1 8.0426 28.3931 14.0215
1 14.4423 0.285175 10.4488
1 26.6155 34.4017 20.4278
1 48.2522 48.8446 28.9697
1 32.463 37.3953 15.5423
1 5.75777 37.3497 42.2125
1 6.23691 7.8718 24.7562
1 44.7135 44.5737 20.6428
1 23.5151 39.7565 28.5771
1 27.9037 27.6103 31.778
1 26.5199 34.0888 43.2157
1 39.6104 0.960034 25.3193
1 17.0125 0.923232 18.7043
1 48.9652 29.0559 33.4687
1 3.40452 24.2076 20.6934
1 8.87431 20.0362 23.1703
1 47.9442 41.0545 8.97241
1 -0.0120456 49.6524 32.5454
1 30.3008 15.6546 34.3899
1 3.34612 34.5818 24.8251
1 0.578697 24.5527 43.4982
1 44.727 11.7497 40.5112
1 18.6143 32.1323 47.0016
1 42.675 41.2345 42.2563
1 11.5163 1.05491 36.7787
1 10.864 10.5925 47.9432
1 39.5639 7.79053 40.0332
1 27.5316 44.342 45.6874
1 32.0979 7.31464 9.74712
1 9.52814 38.2283 7.13008
1 1.26519 41.3008 28.6412
1 4.03398 11.6067 8.53623
1 12.9163 35.5692 47.9641
1 12.2504 6.75974 13.0506
1 7.28257 34.3649 10.9989
1 44.6259 22.4354 17.6051
1 22.0507 9.08719 19.7043
1 12.727 16.5915 36.5975
1 47.695 19.5336 41.1024
1 32.8789 47.4403 10.3459
1 6.15077 2.6588 46.156
1 13.9485 34.6546 26.0542
1 27.6118 37.6879 17.8377
1 47.396 24.8188 16.4487
1 11.8932 8.53588 44.5585
1 13.2782 15.3819 14.4354
1 34.0874 38.5195 19.3281
1 29.9678 25.4395 11.6178
1 35.5965 28.5269 32.3059
1 39.6776 45.9617 48.6303
1 18.3126 44.5079 48.2407
1 25.9666 38.1497 47.1806
1 1.74599 15.6101 39.4624
1 11.6618 37.0297 27.7593
1 9.40747 4.90017 7.32579
1 19.4998 26.4276 21.4064
1 43.3004 37.6586 41.0092
1 9.52788 47.5573 40.9655
1 22.523 46.6211 49.0734
1 26.4476 48.6023 24.2506
1 14.7638 35.4676 17.3482
1 14.0087 40.0854 3.0744
1 17.2355 35.8387 31.1496
1 16.3013 45.0748 16.167
1 46.5018 46.4147 12.2987
1 7.20378 10.3802 2.99446
1 22.194 26.217 43.2388
1 25.9096 34.6201 24.7747
1 7.40394 25.0567 3.51303
1 2.37748 12.0807 22.2881
1 1.26269 9.64444 48.2303
1 2.74137 33.4135 1.64066
1 7.24268 18.4863 13.421
1 11.7224 12.3658 25.7414
1 38.8673 39.8576 15.2944
1 5.23697 24.9825 31.0288
1 7.80758 13.317 48.7862
1 13.9102 42.8596 17.6021
1 47.1784 42.3238 5.29973
1 30.3061 26.5343 49.5819
1 45.9073 25.074 30.9832
1 33.1877 44.3924 19.709
1 5.58553 7.46787 1.73455
1 16.6785 29.0959 44.2441
1 17.9568 40.329 3.67778
1 25.405 -0.121505 11.1389
1 29.817 40.7965 25.3191
1 46.198 37.3967 3.09608
1 20.9961 39.7895 26.721
1 8.86636 5.8775 18.5033
1 5.6574 25.7252 5.97067
1 30.6511 38.7138 46.2464
1 40.6886 7.59582 45.6645
1 33.65 9.73176 30.9298
1 14.5262 39.6002 30.3631
1 24.6312 46.8554 19.5151
1 8.36767 23.3159 14.4711
1 6.13754 36.8124 30.2925
1 18.0237 23.6796 39.3203
1 43.6555 48.8636 36.5581
1 39.7701 4.19974 16.1099
1 34.9238 41.36 35.3982
1 34.4728 13.9081 33.2482
1 46.3781 34.7126 22.5715
1 20.1373 22.3301 37.6755
1 36.2053 25.9875 33.5227
1 16.841 48.2299 36.7162
1 29.4856 10.433 1.31165
1 43.5982 31.1953 13.6259
1 43.309 27.8049 22.0705
1 33.7531 31.7688 48.8893
1 38.9667 46.3498 26.6517
1 41.6486 2.17542 38.6774
1 27.7075 7.25064 36.408
1 17.7687 24.1527 21.8098
1 19.3912 19.4324 17.4808
1 14.5808 27.4959 26.309
1 48.0047 34.5427 9.21424
1 16.6009 38.9741 24.7156
1 43.1561 24.1731 28.7315
1 20.0013 28.1869 29.1969
1 31.7958 18.5177 22.434
1 36.932 43.9375 17.0991
1 13.6134 28.8911 31.7932
1 3.35855 18.4315 42.1546
1 32.1386 40.8682 2.57518
1 28.5191 9.36161 10.3131
1 49.1106 36.0166 22.8378
1 41.8221 27.7575 49.3589
1 34.8413 42.4354 17.9471
1 31.1099 16.4828 24.1607
1 41.5877 12.8117 22.3455
1 13.7954 18.7725 21.0843
1 7.56781 40.7256 17.856
1 20.8368 46.0813 43.096
1 24.9492 10.3024 23.0369
1 44.8478 42.1788 38.6013
1 27.39 25.8111 33.4172
1 38.6417 31.1088 38.3564
1 3.0478 5.58891 12.0728
1 25.8703 30.3549 22.6198
1 30.3072 44.9457 45.7717
1 32.7537 8.79432 3.35089
1 47.1007 1.67503 3.14501
1 39.8308 23.5287 6.70304
1 0.44035 37.3558 29.5561
1 12.4742 36.3816 42.3264
1 21.1647 48.006 45.0369
1 21.9173 33.2916 14.1859
1 48.7044 31.5377 6.50821
1 8.66527 48.7785 1.77021
1 28.4422 23.5019 42.6722
1 4.7553 24.2264 3.55925
1 14.0024 35.6874 0.766771
1 0.81494 26.8067 10.4682
1 45.9269 24.5815 18.8245
1 48.2504 28.5319 14.7149
1 0.0100101 39.157 8.96542
1 30.476 9.72651 37.6437
1 32.3844 10.9846 45.0832
1 30.7451 21.537 10.9228
1 41.4973 27.4781 10.542
1 4.1867 20.737 43.0462
1 43.6565 17.317 2.07132
1 39.6226 44.036 1.13293
1 34.7652 21.2572 19.9948
1 48.9413 18.0662 16.7661
1 24.1887 9.44343 9.68991
1 34.7731 48.5736 39.666
1 33.8616 19.8374 27.5357
1 47.0823 37.1068 32.684
1 27.2155 7.82401 30.12
1 42.5686 11.9457 44.2524
1 19.1099 9.53517 16.398
1 9.27703 29.1302 45.0188
1 20.1172 32.3087 1.77445
1 41.9607 40.3763 3.88658
1 20.7503 5.15504 23.9954
1 5.44886 32.5598 25.4499
1 25.9771 13.4282 15.6913
1 18.2577 29.8479 1.30603
1 19.2298 38.0065 38.5282
1 20.9718 29.7465 43.2692
1 8.51748 29.5495 27.8112
1 22.9153 40.909 22.9476
1 12.7869 19.3781 17.0361
1 9.22649 31.3334 8.06467
1 16.4933 16.4644 36.2377
1 42.5328 1.69793 22.7234
1 48.7682 8.30241 46.5346
1 38.5919 4.63016 29.3963
1 19.2547 27.0746 32.7593
1 9.02693 16.1137 34.5427
1 40.8577 35.2662 38.1828
1 2.36298 28.6634 9.25887
1 35.4275 43.7715 4.34596
1 9.12202 42.518 11.8174
1 47.8839 0.620637 45.0564
1 36.5524 34.4612 18.8282
1 17.964 49.3474 4.45479
1 17.604 13.6229 48.0069
1 3.21288 32.2544 5.32611
1 40.606 39.8834 12.8156
1 45.6296 1.91234 1.01916
1 4.65647 46.817 35.6189
1 33.7944 0.781612 45.9564
1 20.7555 5.16776 8.3628
1 0.583793 20.6335 44.3621
1 30.5439 38.7207 37.5881
1 23.8801 32.1668 18.2977
1 30.1448 45.7565 30.1581
1 49.0351 28.574 21.8562
1 40.8185 23.627 47.4394
1 47.3777 37.152 5.88419
1 46.2924 21.1879 2.83648
1 30.6097 2.9741 27.3248
1 31.766 39.418 29.9674
1 25.3202 26.4346 11.4583
1 6.17158 4.80526 30.6619
1 25.9064 30.4342 11.2201
1 10.9233 44.3419 23.3366
1 44.3961 6.01876 23.1449
1 39.5054 12.4675 25.9997
1 7.70295 46.0092 20.953
1 10.2223 49.2133 19.3158
1 14.3803 40.2443 25.9619
1 15.4723 30.925 30.6222
1 0.204568 42.9973 35.4228
1 6.94913 32.2599 38.4689
1 47.1003 38.0057 29.8647
1 18.6029 14.6259 31.7004
1 48.0009 1.86521 6.72979
1 2.43189 45.724 3.19366
1 14.2517 33.2185 3.82389
1 49.3547 17.7904 24.7954
1 22.5682 22.5707 26.9662
1 2.21911 7.2252 8.59126
1 27.0584 1.40126 18.8954
1 3.15157 25.6021 32.7249
1 16.4559 34.5009 0.928253
1 39.0176 38.8363 42.2581
1 17.9815 5.3142 31.9824
1 39.8097 33.3604 3.50872
1 45.5253 29.2961 38.744
1 42.6153 30.1556 43.8712
1 40.5189 38.0925 8.43118
1 9.77553 2.72483 26.4829
1 6.43797 35.3855 22.3617
1 46.1483 36.7517 48.2776
1 27.0066 25.1466 44.6726
1 30.7576 16.5505 10.1877
1 3.25593 3.11872 46.2811
1 15.7419 1.50337 25.7311
1 29.419 37.0446 39.5006
1 29.2528 26.7333 14.3024
1 10.4064 40.3332 42.0778
1 24.3388 12.5951 11.5934
1 28.9057 17.3974 3.84744
1 6.07467 32.0041 29.6022
1 39.4341 46.7166 39.3351
1 15.8979 10.1267 49.116
1 31.0894 33.9725 9.99321
1 41.9981 43.042 2.99046
1 8.22153 14.8501 29.0474
1 36.6617 0.36445 13.0653
1 18.6333 47.5838 40.7474