4096
 Atoms. Timestep: 13340
1 7.70262 20.2398 23.9156
1 13.8444 40.7409 26.2194
1 41.9327 7.28228 19.807
1 17.6397 48.2549 20.0029
1 7.59842 28.1972 5.44444
1 43.8118 12.0643 15.0949
1 30.3115 41.6827 26.8401
1 36.7492 41.5772 21.4704
1 2.83098 41.8451 32.6468
1 42.7076 27.3644 0.35475
1 47.4698 40.6085 21.6447
1 10.4839 7.3679 42.4282
1 18.7373 0.509263 11.8886
1 23.3108 7.48946 11.3725
1 9.14054 32.2163 3.85066
1 32.6414 37.1158 17.9321
1 44.5109 47.732 25.9809
1 10.9287 43.7318 20.481
1 23.7846 17.1947 39.1813
1 20.1641 12.5647 16.4816
1 45.8122 44.8095 30.5824
1 8.1539 38.4321 6.93854
1 17.3746 30.7438 47.9513
1 18.5179 35.671 22.4564
1 19.9517 41.5594 13.006
1 23.9942 21.1026 30.0557
1 31.6399 43.3411 42.9204
1 18.1769 46.8749 49.626
1 10.3806 9.17319 11.5151
1 10.884 6.47659 10.5749
1 42.8001 23.3977 15.3874
1 26.2244 30.4548 45.668
1 20.8281 0.937655 5.82188
1 25.0565 32.5622 9.01372
1 34.5232 45.2666 47.6316
1 28.2634 4.57491 37.6793
1 10.7215 45.4287 13.7284
1 12.0943 9.49795 8.56591
1 4.92028 13.6572 33.4167
1 8.01349 32.9963 28.8282
1 30.6621 28.2927 26.4994
1 20.0069 14.6743 46.3575
1 19.4856 44.0074 15.5319
1 46.8659 36.3287 22.2428
1 39.6348 35.4396 21.771
1 0.996849 41.1353 6.39036
1 18.1422 4.88632 3.1884
1 41.9296 28.2193 4.9018
1 42.7629 31.3285 5.89847
1 30.6746 44.1506 46.7215
1 46.6126 8.13997 32.704
1 8.60065 27.768 24.6028
1 8.65533 17.2041 42.8655
1 11.0147 18.7462 21.7083
1 6.57866 4.68434 30.5158
1 9.39968 2.76896 10.2227
1 14.9966 6.28951 14.0755
1 19.8359 7.5977 19.3254
1 12.4119 9.03904 49.3144
1 3.08994 20.6117 37.4974
1 21.5596 36.3806 37.7196
1 6.90839 47.4711 18.5247
1 46.0616 31.7842 29.9184
1 32.0799 19.3959 4.42857
1 40.9422 5.12053 16.0765
1 24.3606 14.4526 38.3294
1 37.2297 24.8131 1.38833
1 47.4986 22.9163 4.94231
1 44.0271 21.6872 13.2068
1 32.9394 16.2938 42.873
1 30.5254 24.5929 0.349651
1 30.0964 41.3195 39.4364
1 41.7753 15.5614 28.7449
1 34.0387 4.25087 46.3284
1 19.2265 14.616 37.4161
1 37.8011 34.3366 2.48811
1 26.1554 26.3803 10.8878
1 30.7362 2.45489 43.1571
1 16.0904 33.6666 1.44403
1 24.7761 7.51821 18.8063
1 26.7396 40.7768 0.352557
1 2.42647 3.57489 0.140522
1 35.8898 14.1256 32.8823
1 28.5826 21.4969 13.6448
1 29.8501 34.9442 48.2699
1 27.6294 32.3641 17.2958
1 36.9586 14.961 3.66038
1 10.0552 19.581 10.0242
1 28.9036 19.3027 7.71575
1 30.3638 18.3704 2.54805
1 40.5683 24.3984 24.2064
1 29.044 1.0956 8.92549
1 26.1181 8.50471 15.8861
1 31.2019 22.0362 25.6992
1 11.5345 39.3661 13.6168
1 25.7056 30.5377 37.1278
1 37.635 3.01934 7.65634
1 16.9363 17.4133 9.88631
1 16.0918 8.15619 17.4326
1 6.38889 19.9937 20.845
1 10.6561 11.1452 24.0921
1 24.5116 26.1223 40.5915
1 3.35613 28.1889 11.2855
1 8.83361 45.2218 41.9605
1 14.4984 39.1227 3.8286
1 35.9235 1.68784 48.8829
1 31.8383 23.6574 5.30842
1 13.0329 45.4012 8.20753
1 35.6921 40.9025 15.6461
1 46.5809 46.9326 39.2314
1 19.7626 0.210752 46.984
1 14.2689 36.6187 31.0259
1 47.2497 41.762 38.1511
1 14.4225 6.84517 23.2563
1 24.6399 18.9478 47.4821
1 25.4922 11.8812 24.4144
1 1.9558 24.5588 31.9762
1 42.5362 30.6372 42.292
1 13.1365 26.2165 8.47057
1 31.9363 5.05976 20.6459
1 18.6907 2.66688 2.0261
1 16.0877 19.2588 30.6665
1 42.0386 16.6293 1.17381
1 21.2607 39.7982 6.73324
1 45.1014 2.53039 21.0023
1 11.1983 17.0966 43.066
1 38.2287 37.7365 40.4236
1 11.8734 19.3794 27.8023
1 35.2763 2.27889 21.0621
1 30.1516 39.57 10.8326
1 33.8144 30.1865 5.72082
1 23.7176 11.2041 26.541
1 8.1995 17.9143 30.4008
1 43.9469 37.5791 8.38173
1 2.89083 40.9279 26.6372
1 49.8673 22.8839 37.7704
1 44.0515 9.01056 28.7551
1 30.0166 28.0467 36.7231
1 13.0552 0.50884 46.5076
1 41.4181 27.2165 45.5771
1 43.3774 2.22209 8.85547
1 5.76275 15.0506 21.3884
1 32.0097 7.0716 35.3388
1 13.0341 5.5877 36.0621
1 15.3023 31.2145 17.5418
1 31.8881 11.1645 17.1447
1 23.0377 36.9961 26.4014
1 17.0926 10.6186 17.8747
1 48.8307 34.7572 44.2496
1 4.04783 15.4539 45.688
1 9.05034 13.1036 0.786908
1 10.3251 24.1136 4.62711
1 40.446 44.7413 5.04748
1 44.9437 7.05453 7.83362
1 40.4274 5.79966 6.94079
1 32.8686 3.95366 42.894
1 26.4957 48.6371 42.1782
1 42.17 4.44872 44.6643
1 33.2388 8.4057 21.7136
1 33.8368 15.4067 17.2133
1 13.4091 29.8483 27.3129
1 43.1931 4.60195 1.56245
1 34.7142 1.87748 12.6036
1 18.7064 11.347 21.7157
1 41.4628 25.5173 32.4198
1 6.29616 15.1526 38.4926
1 40.6913 9.2126 16.6018
1 23.029 10.0879 3.25615
1 34.1376 5.39978 7.35645
1 23.6653 44.8262 14.9677
1 8.65114 1.36475 12.3382
1 44.8346 1.78552 28.1889
1 49.1792 25.144 14.5637
1 23.6743 9.10356 8.01524
1 17.6518 7.55057 28.3331
1 27.2474 16.4638 13.0943
1 2.08196 1.39401 25.0469
1 46.6852 41.0475 8.20664
1 39.7714 41.7717 13.7427
1 13.8363 31.3018 39.2757
1 18.4127 9.27761 4.08304
1 24.5561 38.6781 22.7954
1 13.356 13.957 11.2026
1 27.6406 19.1841 2.89249
1 44.0477 2.09243 1.4858
1 5.8995 16.5233 25.4963
1 39.8151 34.6865 28.5526
1 28.2055 36.5502 27.9483
1 30.649 17.6471 36.296
1 12.4649 31.2825 17.4879
1 14.2101 18.3939 5.09017
1 25.4824 20.7662 16.9077
1 37.7026 10.126 13.7801
1 39.6272 33.7537 17.6246
1 7.02351 42.6154 26.3566
1 18.3065 35.925 13.0293
1 43.911 17.8038 11.1012
1 13.2442 31.5649 21.9429
1 30.1981 19.1842 22.5833
1 14.1228 35.0272 12.7199
1 9.36657 2.25419 34.9777
1 2.86048 41.1456 48.5094
1 34.4856 47.2863 10.389
1 5.03893 22.9246 2.43509
1 6.06052 14.445 27.3247
1 34.3613 7.47536 15.5294
1 37.8956 34.9996 39.7298
1 36.9362 19.5023 30.095
1 2.39353 9.8647 23.6346
1 9.11894 3.44979 15.6688
1 11.4827 8.64066 34.2407
1 25.0595 22.1913 1.31003
1 31.2614 16.4454 14.9159
1 12.5535 13.7274 36.0795
1 23.5161 20.371 18.9557
1 20.8466 38.8126 27.7968
1 17.7545 3.03064 15.4427
1 23.6239 27.4442 4.89706
1 48.1149 15.6095 11.0908
1 24.9389 18.2787 30.3684
1 22.7014 31.3679 19.5619
1 20.0537 1.13892 32.8376
1 40.545 45.3923 25.7698
1 35.8523 4.19771 48.3592
1 16.6745 21.5072 26.7526
1 26.7448 41.1156 19.1387
1 31.6432 0.710873 15.1552
1 21.9094 0.776127 17.8068
1 42.7089 29.6041 19.8793
1 48.1076 19.3533 19.5011
1 27.7137 12.6292 10.2613
1 24.0141 49.6715 20.8689
1 12.8621 39.2717 41.9312
1 22.0097 2.90372 40.9385
1 7.79753 14.0587 36.6343
1 3.75765 13.893 3.76261
1 23.5151 1.47317 36.5688
1 9.24525 33.5591 15.5139
1 8.44281 5.48258 9.97616
1 49.2722 34.3915 3.3023
1 17.176 33.6631 6.80203
1 42.2187 23.9766 30.4941
1 39.907 33.8258 11.4591
1 44.0689 41.1347 41.1879
1 16.7021 37.7813 34.7696
1 10.8729 34.7547 11.1416
1 48.2804 7.73431 30.4362
1 46.4567 19.467 3.59533
1 24.3776 24.3778 25.021
1 0.527367 19.3844 37.149
1 40.1129 22.1877 31.3095
1 0.610743 28.0806 7.10668
1 45.0861 1.48549 44.2029
1 28.7007 1.43823 26.2769
1 28.2464 10.5587 35.7863
1 5.35811 25.9169 35.4303
1 39.6582 44.6681 29.572
1 27.3332 29.8592 34.2422
1 13.2515 29.0248 7.53925
1 47.6512 47.3747 17.03
1 44.8062 42.4719 9.52896
1 17.7209 10.6768 31.7364
1 1.69666 22.5797 14.938
1 3.81296 47.2817 48.0139
1 13.0593 26.7691 1.57188
1 12.9909 15.9249 25.5431
1 33.4157 29.7367 29.1146
1 24.7718 6.7479 0.666701
1 27.6932 35.0833 39.5959
1 5.52209 29.8208 29.0069
1 15.7356 0.0909361 46.3405
1 33.866 16.1426 28.9175
1 39.353 12.0881 20.1908
1 1.51079 41.9437 44.8384
1 26.4965 14.8643 47.0287
1 47.7908 48.864 3.1978
1 42.1967 48.6985 36.1974
1 16.9232 26.0982 26.6601
1 36.1598 14.0686 35.6586
1 4.76745 10.549 8.39876
1 4.70073 35.5711 15.6636
1 24.4557 43.4904 37.0393
1 41.6912 30.4267 29.1461
1 5.22769 35.4503 1.07547
1 22.1883 48.8813 15.5766
1 48.0966 32.3723 49.8357
1 9.55819 26.9313 3.57135
1 12.724 46.2242 26.7806
1 5.52391 20.4174 3.53946
1 3.80906 9.35141 47.4517
1 39.9617 28.2035 24.8297
1 38.154 29.0642 38.163
1 28.8584 31.6556 30.5154
1 31.6996 46.2595 14.7339
1 27.5645 3.37812 15.1732
1 8.21234 8.2266 17.7722
1 8.31049 9.80028 37.8361
1 40.0357 2.61836 34.6791
1 30.6533 13.4735 42.2224
1 25.0387 16.3766 26.6592
1 0.880224 48.5163 20.929
1 25.0389 26.0508 18.6525
1 15.4049 11.6055 30.4915
1 20.7946 24.4046 37.4584
1 14.1153 32.0539 4.25991
1 45.7271 6.79301 11.6984
1 1.13517 22.1152 27.5026
1 33.7795 11.8605 47.3616
1 45.7996 28.402 19.1659
1 18.2121 29.4089 30.2936
1 38.3073 5.70778 16.452
1 40.7487 14.547 2.74091
1 42.5863 38.3182 10.2699
1 34.3622 14.8716 19.6652
1 12.4299 17.3631 8.53672
1 48.9165 23.8341 43.982
1 22.1786 28.5772 8.9218
1 19.7526 43.89 41.1788
1 6.42771 15.0924 13.2087
1 33.9606 26.1509 46.2019
1 12.0697 10.7739 2.08048
1 10.1665 9.84684 30.3926
1 30.2095 29.6075 2.21293
1 37.3633 7.87514 2.61082
1 13.5897 48.7829 0.87265
1 0.182202 25.8579 24.7336
1 17.8034 26.7882 40.5884
1 11.9609 20.6776 2.50849
1 27.646 37.4698 5.05256
1 23.037 19.7886 11.0094
1 26.8479 4.20961 28.6718
1 21.6378 14.0752 35.6708
1 31.595 4.97448 31.1264
1 40.5985 4.31793 1.17626
1 43.6165 20.7067 20.7433
1 11.9861 20.7233 32.3263
1 6.17659 29.3931 24.407
1 46.736 13.4015 15.1597
1 12.9403 42.0966 12.1796
1 5.37929 1.97634 4.6523
1 48.1853 37.576 44.7048
1 44.8857 19.7109 1.49013
1 18.8544 38.434 22.2117
1 21.4021 5.94272 43.898
1 43.3651 44.231 29.8346
1 9.99751 1.93444 49.2721
1 29.8863 23.4861 28.27
1 24.6922 2.86993 32.1424
1 17.1186 25.7486 7.07943
1 20.0482 9.56002 22.8624
1 12.1579 0.0938372 5.82895
1 0.208616 44.9076 40.1772
1 15.1189 24.3397 10.009
1 10.8677 43.8119 46.3063
1 31.3979 42.7938 6.72561
1 22.7468 4.19387 28.3886
1 8.91844 25.3406 13.3952
1 33.3598 12.2656 41.3124
1 10.4387 46.8887 33.0869
1 31.1076 33.5305 0.732491
1 46.1289 43.3638 12.0159
1 14.3163 5.78544 30.7695
1 45.0549 46.4118 34.5739
1 16.9032 22.732 40.955
1 26.251 28.2174 22.1343
1 20.0855 26.8072 36.5666
1 2.74385 13.408 42.3976
1 16.8197 28.956 41.6657
1 0.41685 47.2386 3.57551
1 25.8238 2.82368 37.8677
1 1.90372 44.8932 46.5309
1 2.58141 19.9535 30.4593
1 8.78126 12.7695 26.9956
1 38.0923 0.631832 24.1741
1 5.70716 17.103 30.7121
1 45.7707 33.3769 14.485
1 1.27018 11.5762 45.0237
1 8.08309 24.619 32.4117
1 34.8985 47.4123 49.1209
1 35.8986 0.538981 25.5158
1 20.0105 3.0922 17.4218
1 40.7937 18.7672 49.5151
1 22.7573 48.1316 33.0064
1 46.4865 9.31001 9.27714
1 32.7277 48.3809 5.43793
1 39.1158 0.0285709 39.8778
1 1.14792 25.996 40.4596
1 4.4077 31.7596 19.387
1 25.7955 40.7458 2.80936
1 0.343822 26.529 44.4894
1 32.4084 2.80305 22.2896
1 9.96954 31.0959 29.7208
1 18.7854 21.3305 0.323632
1 25.1722 42.9879 16.7553
1 14.8635 43.6054 11.0955
1 31.3803 11.7989 33.0214
1 20.9574 27.9281 1.71916
1 43.2389 21.8955 37.1426
1 38.72 12.9009 39.9072
1 45.6939 45.2356 26.2783
1 37.017 27.1859 36.0477
1 45.4139 8.71743 43.9333
1 15.928 49.5836 2.78961
1 43.4818 36.0696 32.1015
1 15.2511 6.71007 46.681
1 23.8546 8.35078 47.8338
1 32.3101 30.8183 35.7337
1 46.6183 13.7698 36.174
1 20.5838 23.7967 24.298
1 48.9846 30.7406 30.3456
1 16.2317 33.7166 16.8056
1 21.0394 4.67448 26.2316
1 24.8863 16.7051 16.0626
1 7.92301 20.2251 40.5953
1 19.8498 36.4478 31.0272
1 37.2325 16.8625 35.4799
1 8.91874 10.7051 42.1201
1 48.1066 47.9212 19.6434
1 26.3193 45.643 3.83829
1 15.7738 22.8099 33.568
1 5.60221 6.47392 47.456
1 4.67235 27.4809 32.0269
1 46.9139 39.3899 49.6354
1 27.2622 34.5218 34.305
1 22.3597 33.9868 19.6962
1 1.03862 26.9147 28.151
1 2.27968 36.5031 42.6214
1 41.9069 8.78304 30.9527
1 19.8426 2.60377 8.74723
1 34.2733 10.8661 18.4149
1 33.581 48.2303 29.9648
1 36.7194 23.5399 8.47271
1 3.12054 34.8918 13.3317
1 44.9563 28.096 35.2248
1 13.7469 30.3424 32.1247
1 40.1819 8.69747 3.52937
1 9.65018 4.44991 23.1651
1 18.128 5.39718 34.2243
1 19.6828 3.6095 43.7322
1 39.3426 45.8363 37.69
1 4.61563 26.1934 46.6274
1 28.2129 30.401 44.1568
1 13.6065 11.3657 4.13317
1 19.8532 40.8589 31.0165
1 20.7002 38.6874 46.7915
1 40.6901 5.4457 34.5999
1 13.9216 12.1247 13.085
1 14.1169 49.0782 39.0448
1 38.2511 33.2724 8.14291
1 41.3082 33.133 7.56047
1 14.6343 11.5081 24.9629
1 27.8615 26.3961 29.627
1 7.18871 8.04623 33.2897
1 43.9962 32.7145 22.7187
1 36.2429 48.9854 47.4278
1 15.9087 9.50039 1.64633
1 20.1921 21.5233 32.5811
1 13.6176 29.4428 36.8863
1 39.574 8.29144 10.2997
1 41.7292 17.3241 42.2849
1 23.2293 49.642 28.2589
1 48.6492 2.47528 36.1329
1 33.9268 30.2561 8.87394
1 38.5036 44.8176 33.1545
1 28.6803 42.9555 35.5418
1 13.9041 14.5419 44.8335
1 13.2448 11.1033 18.3836
1 33.9966 23.4391 3.95923
1 16.3402 28.6524 49.3152
1 20.3318 40.186 41.6617
1 37.5426 12.2366 3.21525
1 16.1296 25.2153 41.6258
1 26.2712 28.455 17.6103
1 9.05044 26.4798 39.5708
1 8.75133 10.639 22.0673
1 11.2971 6.12376 38.5262
1 28.1487 16.5012 44.8939
1 43.8597 24.9488 3.90169
1 24.4276 3.68253 15.3074
1 25.5824 10.8658 1.95837
1 21.2299 28.9348 30.8688
1 14.2756 3.29187 43.2249
1 3.17394 30.433 30.425
1 21.9246 8.01991 29.7561
1 3.34196 44.2098 10.7659
1 19.6255 22.3575 28.1396
1 37.6626 41.7041 17.675
1 11.6366 45.4152 42.413
1 43.9243 14.9227 32.2366
1 13.2356 23.4062 41.7784
1 44.4052 25.2669 49.3084
1 13.9766 26.5451 35.5264
1 45.8538 2.28419 5.85357
1 38.9664 33.8026 32.772
1 23.9432 35.3016 36.9332
1 1.46205 31.0601 14.4246
1 47.8476 43.6404 2.77493
1 29.1362 7.18821 27.0896
1 44.227 6.02349 43.2866
1 20.8704 15.2415 10.4158
1 7.15911 45.9673 27.9519
1 8.87618 49.1772 45.1756
1 35.4169 2.37217 30.4639
1 11.9281 42.6592 32.4176
1 47.1931 31.1098 41.5451
1 27.0063 22.5275 43.7361
1 5.20845 16.9248 42.2351
1 17.4176 38.6729 12.68
1 43.6988 33.3844 3.95054
1 34.3816 7.44399 33.6248
1 2.29507 37.4875 8.18683
1 8.41419 31.1881 20.638
1 7.00821 0.124759 41.4794
1 20.7905 16.3169 6.32212
1 1.23836 37.9078 21.5459
1 45.5616 20.4965 28.3336
1 42.7863 25.7944 23.9509
1 12.2806 0.938759 10.5103
1 1.79632 38.5669 27.2157
1 34.5407 30.9768 0.846311
1 11.9108 20.0206 25.1142
1 4.94673 11.8621 43.5559
1 6.17357 2.26184 47.5999
1 10.5841 0.847865 14.2728
1 8.61911 40.027 31.3419
1 43.006 24.3601 47.135
1 18.9189 32.061 31.0676
1 44.5372 0.152739 19.7419
1 10.1619 31.1647 45.4491
1 48.2503 34.7119 13.7496
1 10.5673 41.9654 40.059
1 16.3765 34.1697 34.0911
1 18.8951 26.2344 11.0836
1 1.70812 26.5498 46.7904
1 41.2869 45.5169 48.7047
1 7.71107 44.6794 3.52683
1 9.98758 24.6822 20.4675
1 19.9059 34.4698 40.4141
1 30.6742 16.5003 10.6693
1 38.3157 24.3461 42.5414
1 3.26647 49.4037 31.8672
1 8.03775 19.5913 15.5814
1 6.05858 40.4672 1.21624
1 16.2042 36.6232 3.70213
1 39.3986 3.26702 5.35611
1 14.5062 12.0628 42.1626
1 24.6991 6.18972 28.9519
1 13.6198 36.0254 15.4921
1 42.0204 44.5775 42.6524
1 0.270791 39.5204 40.1713
1 2.47103 21.8359 19.7895
1 4.8829 37.0539 44.8164
1 27.4621 7.0199 9.85882
1 33.498 38.4862 25.362
1 35.8529 49.6565 36.1639
1 27.8693 36.5815 49.3257
1 30.9597 13.4827 5.67802
1 1.02515 9.24313 8.25497
1 4.35574 38.9541 4.56305
1 25.9752 10.6038 11.7226
1 34.7008 31.0025 31.1525
1 2.83568 30.2039 49.0252
1 32.9964 16.092 4.54658
1 8.55029 20.3226 46.5856
1 32.3538 24.0242 17.8533
1 36.0582 31.0379 44.1678
1 19.9303 14.8333 17.7617
1 28.1001 45.6316 25.5159
1 11.4096 39.3804 39.6905
1 41.9782 6.02168 32.2448
1 45.2846 14.2707 17.8225
1 40.0776 1.18742 13.3923
1 31.8878 23.6759 41.5753
1 17.0222 39.3624 44.3177
1 7.65297 38.0497 38.0559
1 16.3362 14.5712 32.5888
1 18.2173 34.8551 47.3837
1 34.6328 30.449 22.6192
1 1.9461 43.5182 5.29931
1 38.3243 3.7913 2.82361
1 22.7059 35.1335 48.408
1 10.5407 22.9578 2.14932
1 18.5947 36.6897 38.9285
1 1.73995 8.22443 33.2824
1 36.8675 44.3492 48.563
1 21.1155 17.832 39.5113
1 16.2289 47.4046 6.27954
1 24.4468 14.3782 41.9226
1 6.26811 9.54562 42.7255
1 12.7089 5.46828 24.7872
1 26.0462 8.19192 31.812
1 29.205 30.1447 47.5086
1 8.27451 10.857 11.4217
1 29.6766 26.3248 31.5355
1 43.8859 43.3896 19.0623
1 15.2766 17.176 41.4753
1 22.3228 30.1134 21.9701
1 37.7928 33.9393 46.342
1 40.6558 34.4557 47.136
1 12.3925 24.5248 23.3895
1 24.9182 4.04271 49.5165
1 15.6631 4.47497 16.2147
1 26.0221 5.3139 24.7025
1 34.2364 18.6715 42.9147
1 45.2232 27.1772 42.6134
1 36.4571 11.3479 32.4481
1 8.10116 32.4566 49.2501
1 46.9273 2.92107 8.16437
1 10.9826 45.5342 9.97417
1 29.1296 7.41704 0.198843
1 2.8844 15.7952 20.4749
1 10.9056 41.3494 25.118
1 10.4466 15.4986 30.5447
1 14.3974 5.1821 18.6875
1 26.7242 8.52566 0.65051
1 41.3925 21.5424 17.1102
1 2.75042 24.1388 24.316
1 36.2524 5.33666 3.01934
1 46.2602 9.66362 37.5731
1 45.8511 13.6623 8.55098
1 44.1651 23.6791 22.9925
1 23.8491 28.7363 36.0795
1 46.1897 46.8388 43.703
1 32.7635 40.4334 23.093
1 16.6025 5.10628 32.1984
1 37.4918 11.4862 27.7226
1 29.2698 20.0147 37.4618
1 47.8597 11.2609 24.5512
1 33.3096 38.4935 36.2346
1 36.3521 11.1214 5.50443
1 15.1356 41.2318 32.8184
1 40.9883 22.4824 5.52816
1 29.3372 21.0424 24.0946
1 21.3881 17.794 48.9969
1 9.44672 31.168 25.0575
1 28.2387 40.3831 27.7939
1 44.8721 2.20506 17.0624
1 44.5663 13.1855 42.283
1 1.81717 12.581 22.7359
1 18.9101 31.16 19.8389
1 49.5277 35.6488 36.1432
1 16.5646 11.8719 12.5977
1 35.8486 30.8156 17.341
1 46.4741 17.7346 29.4935
1 7.10901 36.1363 2.76716
1 14.8201 36.0427 10.2307
1 17.6335 23.0847 7.76202
1 32.8945 33.1456 25.5534
1 15.5825 0.555958 43.614
1 33.7344 8.70868 29.6058
1 21.5407 17.7087 9.66247
1 4.30031 35.5847 24.2972
1 32.9299 26.9736 27.5301
1 23.9116 32.4439 40.6689
1 29.9253 16.1227 4.29609
1 35.7938 20.8348 44.3268
1 5.3336 32.444 22.82
1 17.5271 27.0237 31.3319
1 44.4492 36.4375 29.6402
1 6.98889 20.5365 48.6214
1 15.5522 20.3481 35.1549
1 39.5989 6.98475 21.2923
1 26.1791 42.5371 43.506
1 38.0909 9.00774 46.1739
1 37.014 21.9161 17.531
1 5.56212 47.765 11.3271
1 22.6895 40.2846 0.713944
1 29.2188 46.4449 30.0395
1 5.58836 43.0998 33.8697
1 42.5047 1.77277 45.45
1 15.0594 26.3704 48.0871
1 23.299 5.54985 17.3828
1 32.233 44.6218 48.683
1 46.8862 9.05712 28.5404
1 41.8946 33.7896 30.5947
1 42.15 15.5667 14.2879
1 39.9591 8.34486 6.27929
1 37.6383 29.2158 25.3339
1 6.85306 8.83177 10.0117
1 45.4467 44.6187 6.70589
1 8.5762 24.887 47.0478
1 42.7776 37.7992 48.801
1 41.3548 5.84392 46.8149
1 6.80496 42.3959 18.9548
1 22.053 26.6104 30.0114
1 10.3715 42.8641 13.0655
1 30.3535 2.37733 35.0771
1 33.0588 39.2741 10.9542
1 31.4887 14.5657 2.53763
1 37.8703 15.7755 20.7342
1 40.3665 10.6888 23.1332
1 1.99606 36.912 34.1779
1 17.9861 1.4217 25.7897
1 15.3704 1.70676 8.82533
1 37.8877 5.56612 12.78
1 28.0311 19.0616 17.6617
1 39.1611 38.793 48.2398
1 49.4561 15.7825 13.5221
1 39.4789 40.6953 38.789
1 48.8806 7.3315 25.2513
1 10.9036 45.7381 39.6133
1 34.6628 8.24086 11.15
1 29.9134 32.2311 2.81636
1 11.3123 41.6871 48.2707
1 46.0415 0.559423 38.1188
1 18.0249 42.9834 11.4664
1 25.992 2.66248 20.4052
1 49.6345 20.5879 21.2539
1 9.26409 13.2312 10.0632
1 14.2749 22.8907 27.4712
1 32.9682 33.1769 5.88397
1 48.8662 15.6072 6.80664
1 48.2775 29.2142 19.3423
1 14.9903 21.1454 42.2576
1 37.9988 15.4423 41.1226
1 22.958 22.3472 6.00958
1 32.0806 43.085 40.1585
1 4.49744 3.86279 8.69481
1 21.3249 28.8508 48.8614
1 40.5085 30.6382 17.4857
1 19.5881 14.2391 7.97941
1 27.982 5.19593 3.86724
1 11.7794 19.975 14.8383
1 10.9406 22.8886 30.6969
1 30.4589 33.5487 23.7659
1 33.5731 3.734 11.287
1 5.81125 33.1761 14.851
1 41.2897 41.3096 25.4476
1 28.5469 8.68161 43.0451
1 40.5052 46.7426 16.8228
1 33.2353 12.9996 27.0145
1 30.711 14.8872 30.1002
1 22.3466 9.3683 0.100945
1 49.3725 30.16 34.846
1 48.9779 32.0395 32.9586
1 0.120516 31.5018 26.5752
1 20.0217 6.39376 1.70757
1 24.2253 1.47621 48.1155
1 3.78917 36.9343 26.6946
1 40.4154 5.73131 29.8974
1 7.45126 26.1098 41.8021
1 16.4719 47.861 22.7179
1 28.9753 43.4204 2.1442
1 29.7695 11.1228 4.45761
1 6.1294 17.5209 19.8203
1 38.7466 48.4988 4.63321
1 0.133222 40.0238 22.8522
1 43.2331 6.19263 28.2643
1 26.7055 46.3291 32.6267
1 24.7647 22.3892 8.2673
1 36.7727 1.64928 1.66656
1 28.8227 23.1042 35.809
1 10.096 2.96852 39.2381
1 39.9281 38.7672 34.2686
1 31.8579 48.0346 48.7417
1 8.04382 39.8061 13.4185
1 28.8281 39.7144 17.5524
1 18.3432 33.2166 9.4735
1 3.03124 45.2183 43.6961
1 12.2475 32.9468 12.7637
1 32.8216 20.4337 0.811786
1 5.04171 41.2835 3.41104
1 44.5439 28.7572 16.3606
1 44.7816 32.2072 1.8971
1 14.4987 25.3412 6.38361
1 16.0859 36.0464 6.53822
1 36.2666 5.21947 14.9779
1 42.4785 20.1454 9.6211
1 30.2149 14.958 35.1705
1 4.73114 15.0526 29.5445
1 1.96626 45.5312 8.8182
1 18.5688 25.6665 19.2701
1 7.43519 42.3594 49.5528
1 35.5685 34.8336 8.02677
1 43.0714 30.6055 14.2707
1 23.6305 30.2298 49.01
1 2.32173 22.5015 30.3283
1 25.5244 19.8104 43.4043
1 43.0376 18.3193 2.79438
1 41.571 40.0732 40.7934
1 28.8609 0.980183 22.4715
1 19.5642 45.1375 30.2886
1 17.1078 28.059 44.3995
1 10.7664 48.0209 4.1974
1 43.0868 21.7417 47.5545
1 0.994575 32.549 36.4747
1 32.3788 49.3408 8.65162
1 9.48715 45.9353 5.4099
1 21.173 6.31469 36.3326
1 18.5044 10.9943 47.3211
1 48.1527 38.7064 33.116
1 28.4954 48.675 3.10994
1 11.1091 2.96154 6.3849
1 11.6145 48.0561 45.6386
1 35.6096 28.0243 13.6344
1 37.3726 35.093 20.8615
1 18.4393 45.6959 2.05046
1 4.0738 7.01595 16.4386
1 31.7426 31.409 48.9581
1 10.1643 21.2854 39.3184
1 1.36608 33.7772 43.255
1 44.8054 10.3076 41.845
1 35.4895 2.25338 6.81347
1 45.447 18.7474 44.6091
1 14.4337 47.7423 30.9394
1 21.8626 3.99172 21.1016
1 5.22874 9.02885 29.9436
1 13.5932 34.3619 29.4778
1 24.9195 9.45921 5.71721
1 42.0057 10.121 37.9055
1 43.2133 18.1064 40.1521
1 29.234 44.6363 22.0114
1 17.9865 35.9687 10.2703
1 34.0006 43.297 44.1046
1 20.2837 44.6461 35.3603
1 32.3821 47.7019 44.074
1 21.6788 8.25352 13.5915
1 5.4251 40.0593 25.701
1 9.86976 0.457133 40.74
1 12.849 15.1071 15.7633
1 42.2046 49.6318 9.69484
1 3.77969 21.1945 27.0308
1 15.6931 35.6437 18.3399
1 9.82489 21.8178 6.87292
1 48.1928 10.9551 27.4245
1 42.1677 28.659 38.1044
1 0.601958 5.30351 42.3844
1 25.2091 34.1516 23.7732
1 38.5277 40.1218 9.84295
1 11.5299 31.1617 4.58137
1 7.16688 33.0556 45.2713
1 42.1877 9.49962 7.26591
1 20.5364 8.57055 42.9188
1 32.3269 29.9315 20.7736
1 32.3629 45.6109 4.66046
1 21.0647 1.69391 45.1982
1 35.8168 36.2189 45.4787
1 26.2984 20.5773 34.6246
1 30.4785 25.0979 25.8808
1 47.7423 15.9579 16.0873
1 34.0124 8.35493 48.7473
1 36.7192 27.0582 46.3902
1 24.8719 15.8229 32.6501
1 7.35336 22.6 0.812315
1 3.48138 21.5563 35.037
1 10.1449 28.4697 41.5114
1 41.6317 27.9847 31.3469
1 40.7355 42.746 43.7216
1 49.0616 11.3009 41.7061
1 25.0193 22.5753 3.92079
1 45.7927 17.9171 49.4256
1 27.343 2.95668 12.6742
1 11.4198 12.4301 5.30094
1 43.3526 29.9486 24.376
1 6.07006 32.0619 40.743
1 25.8942 5.97346 44.133
1 13.3507 49.3782 42.0875
1 20.914 38.3744 19.9914
1 3.753 32.694 32.3774
1 35.13 19.5613 47.3734
1 2.14195 35.738 38.2738
1 24.8042 49.1519 18.1539
1 15.7533 11.1419 6.23425
1 12.4257 19.3747 38.8777
1 37.0556 39.0703 33.9056
1 46.3279 41.2794 24.9556
1 6.53735 37.6214 15.1669
1 38.6135 1.6269 17.4693
1 4.83105 43.0879 43.488
1 41.7175 1.3421 2.6875
1 3.63728 48.0852 21.5392
1 21.636 1.13 11.9878
1 41.8623 15.8343 6.55097
1 11.9289 32.7299 48.3227
1 48.941 27.6532 41.6054
1 8.42888 23.9509 38.9672
1 21.8196 5.75353 40.9768
1 42.4814 46.9562 34.2006
1 7.82937 27.3356 15.6949
1 37.7989 25.7638 4.09523
1 26.1089 40.8129 15.281
1 16.6224 1.21019 49.8539
1 11.4964 16.006 45.5893
1 37.5771 10.5456 22.3352
1 6.69659 23.3544 17.6851
1 9.78183 29.7384 8.48429
1 5.08479 34.6181 6.4504
1 21.089 40.3362 35.2362
1 9.31741 8.54054 8.52563
1 8.2918 42.4629 21.4782
1 48.8298 31.5709 6.90337
1 22.1401 47.67 47.0643
1 40.7384 20.2445 2.65172
1 37.8619 18.7892 0.266951
1 25.3975 1.33517 2.37469
1 42.0027 47.9767 46.9319
1 8.48827 47.3499 14.1525
1 20.8542 6.6885 31.9072
1 39.6708 0.139897 19.6409
1 23.1767 16.1164 22.4242
1 44.7235 14.8822 5.42119
1 30.3572 6.85693 22.3973
1 18.533 37.4538 45.7129
1 14.1648 34.5864 3.27562
1 20.7841 38.682 49.5066
1 47.1648 41.4229 3.82698
1 30.3925 23.1042 12.0404
1 47.0471 14.718 46.2524
1 5.84626 23.177 38.0563
1 9.73951 22.4163 45.8832
1 6.75367 30.8061 38.5138
1 0.555258 13.3298 13.4553
1 17.5946 7.70395 47.5235
1 44.1415 46.0059 20.1844
1 8.63959 39.7471 43.3588
1 46.4895 26.9485 6.50133
1 25.6049 16.3794 24.0026
1 20.485 36.8245 1.90883
1 17.1999 15.4916 0.237462
1 29.8462 40.0427 31.4304
1 42.227 12.9359 8.62576
1 37.4359 43.0329 10.0128
1 4.58066 17.5454 33.198
1 41.1145 24.8985 6.90273
1 12.6196 31.4421 44.0421
1 23.3231 44.4742 39.4572
1 28.744 8.69704 6.0222
1 36.3466 28.4003 22.9258
1 33.5975 44.231 23.4068
1 13.0265 6.52888 41.0522
1 18.6568 17.2109 38.1661
1 20.7527 27.5986 19.0906
1 17.7193 31.6566 23.937
1 34.8042 23.3179 13.9766
1 11.1693 11.7632 28.0702
1 26.9129 18.8428 37.0209
1 28.7961 34.9018 36.669
1 25.8123 18.9429 27.6793
1 5.52509 14.3539 17.0423
1 20.9386 20.6399 39.5019
1 14.7891 13.9373 3.09544
1 11.4429 1.09571 35.9607
1 39.5034 18.9606 15.0858
1 9.72893 34.492 38.1613
1 41.9537 48.7533 23.4315
1 26.09 5.62514 40.2765
1 38.8883 42.8063 35.5492
1 22.413 34.875 44.7409
1 1.17535 34.021 26.7139
1 6.95301 41.1034 11.3678
1 38.9688 28.471 29.5178
1 39.7594 18.2335 32.3074
1 11.6459 9.9814 41.9657
1 46.8415 14.1467 21.761
1 44.6485 35.0209 20.9522
1 19.712 41.5561 26.2928
1 39.4533 31.816 36.7033
1 20.9307 7.34162 46.1922
1 11.3392 6.76578 44.9777
1 1.67201 3.52434 44.2031
1 21.7203 35.487 7.72626
1 41.2462 32.8433 14.8538
1 19.755 8.84288 11.3097
1 48.8033 7.47909 15.0676
1 47.32 9.14643 22.7783
1 6.96254 43.9176 29.913
1 3.78099 29.7644 15.1949
1 1.92853 29.8634 25.1755
1 20.066 48.8614 1.42844
1 4.14807 4.93025 44.7631
1 36.1818 38.8022 25.3283
1 15.9219 25.4484 44.2937
1 18.7792 44.1815 6.14142
1 30.4537 0.145687 41.7372
1 3.75739 16.1056 1.84688
1 42.8837 0.132887 42.4089
1 22.4495 3.89556 35.3223
1 15.1093 16.7507 36.471
1 45.6029 39.2787 17.4408
1 15.2201 9.77678 48.6675
1 24.321 12.1836 13.5101
1 38.4439 30.7145 21.9284
1 0.602435 5.55023 46.7157
1 18.4364 4.78935 22.3516
1 3.29069 33.739 4.50466
1 41.1785 20.6435 41.7539
1 10.3542 16.8143 48.6355
1 9.31673 7.3806 31.3487
1 38.9109 17.7391 18.774
1 34.8176 14.3956 46.0507
1 17.3325 33.6046 41.6242
1 25.5316 20.1426 38.6206
1 40.8973 16.3954 10.7686
1 18.6905 12.3303 1.10272
1 38.0238 21.8474 2.98863
1 37.4149 15.4062 30.3345
1 15.8706 47.054 44.157
1 43.6527 14.222 24.5196
1 8.03849 48.7982 22.8567
1 35.5995 23.5943 46.4242
1 16.7503 39.7652 8.4866
1 22.4971 28.4593 40.7237
1 6.40739 13.5829 19.3817
1 48.8342 23.6173 17.0109
1 3.34624 40.6125 43.099
1 41.3085 22.1185 21.6315
1 27.0521 12.896 3.27781
1 36.6601 24.3616 37.2174
1 7.02203 29.2779 13.8101
1 18.4608 45.8071 47.164
1 20.3302 46.8155 23.194
1 23.6082 17.0632 8.49106
1 0.364963 22.5062 23.6227
1 48.234 44.2737 34.0609
1 17.6159 22.0248 5.44065
1 12.4169 46.9485 12.0291
1 11.4833 40.2609 44.0072
1 29.7693 2.11169 45.6265
1 33.8599 49.8012 45.603
1 26.3154 33.372 5.59744
1 44.1583 37.8569 35.3255
1 35.1387 35.9608 12.3469
1 1.76063 4.39303 27.0257
1 9.99738 23.8776 8.82289
1 13.0143 10.7991 46.5725
1 17.3352 39.414 20.1457
1 18.9119 11.8665 42.6237
1 31.6062 12.8827 8.51916
1 8.6199 27.2047 7.59464
1 21.1816 44.9168 9.36656
1 28.9232 48.197 23.3517
1 47.7154 27.5537 34.5919
1 30.8018 38.4171 28.0143
1 5.65619 24.9498 4.13544
1 17.6804 42.14 16.3063
1 42.1247 36.4827 17.121
1 29.8018 32.201 36.7403
1 29.5602 47.6675 34.6246
1 38.3133 20.0344 35.6952
1 47.9913 21.523 45.2688
1 13.2719 27.0867 14.7299
1 8.84234 9.67631 35.1946
1 23.9133 36.2651 29.2096
1 26.066 22.6495 30.7595
1 7.5761 14.0812 46.9984
1 0.33537 33.3796 8.19231
1 11.7653 42.5165 35.7606
1 1.37384 8.73 21.2417
1 21.4906 42.4672 16.2546
1 26.2501 16.3625 18.7381
1 26.5837 32.2068 22.7416
1 8.63656 37.2277 9.97557
1 25.2978 11.2208 37.4102
1 5.65849 29.4312 10.4848
1 14.1876 45.3754 2.94457
1 41.4423 48.814 12.3675
1 46.8865 25.4269 38.1592
1 0.424635 3.99102 9.92336
1 2.77876 13.4221 9.36084
1 20.4203 32.9421 8.24328
1 41.9905 4.21752 10.0082
1 46.4642 49.4604 5.28554
1 27.4757 0.472142 19.099
1 3.31841 27.043 15.8127
1 11.7138 19.8593 43.2861
1 35.8559 17.4326 6.57412
1 40.9319 49.3558 27.7696
1 44.8338 43.0552 0.501367
1 29.0881 15.523 49.5464
1 36.9705 34.5434 18.49
1 18.4289 8.27209 1.32435
1 26.8552 12.5606 30.1543
1 42.1484 47.0958 27.1111
1 33.2227 35.1295 2.05586
1 48.8251 42.1243 29.6958
1 45.9846 32.5647 32.5459
1 25.4405 8.52964 10.1672
1 31.9373 0.864021 36.8786
1 21.5648 37.774 15.967
1 27.9287 2.37317 33.8199
1 47.2686 35.7299 2.23718
1 49.5235 16.4381 34.9557
1 41.443 21.7249 49.7953
1 3.85334 15.7959 23.7164
1 16.0626 18.396 1.71463
1 6.1312 2.7094 13.0769
1 37.2449 46.647 11.1348
1 22.7008 9.06348 18.45
1 33.3237 20.9513 36.2683
1 9.97859 20.6482 17.2612
1 1.29855 43.7385 34.2791
1 35.8871 45.2932 27.0295
1 49.2138 45.1649 20.5473
1 21.6918 34.388 12.4026
1 31.2165 16.0519 26.4191
1 15.231 33.0907 31.7815
1 28.9374 25.7525 15.2471
1 17.0312 13.9473 20.3638
1 48.1202 41.2569 48.2845
1 8.09689 43.3898 16.6625
1 4.42595 41.4609 8.28775
1 8.71631 24.5089 28.83
1 20.5385 23.9879 40.4138
1 13.7425 26.6577 4.21595
1 22.7165 49.1144 4.66931
1 12.9147 41.9278 0.62093
1 44.0985 42.3773 13.5376
1 30.4685 45.5925 43.9726
1 43.3105 39.4554 26.3489
1 23.976 38.589 31.087
1 7.15398 47.076 45.4466
1 6.89944 31.0178 4.66314
1 28.817 16.48 6.79529
1 19.587 34.2021 18.8487
1 8.87258 9.26236 3.79001
1 18.8265 29.3556 34.4517
1 38.9649 48.1048 26.0174
1 0.407426 39.4835 2.1324
1 1.15732 18.953 12.0798
1 44.6751 11.0736 9.17685
1 40.5097 42.4652 20.6954
1 33.8096 8.19952 41.8904
1 12.5376 9.18895 24.7788
1 34.2354 42.6634 21.185
1 14.3513 12.4316 16.0886
1 4.48898 18.3205 26.9623
1 2.75384 29.877 40.7909
1 31.5633 48.1264 26.7468
1 32.5091 13.8485 31.6943
1 22.9864 47.9955 42.2824
1 42.2363 35.5489 2.81026
1 24.6193 9.07635 29.8975
1 17.699 42.1649 34.4853
1 25.848 47.9488 39.5259
1 37.4612 31.4662 46.5261
1 37.1928 42.1829 47.2691
1 33.1545 30.4675 24.6492
1 14.6668 41.0994 7.08999
1 9.42126 20.18 20.0523
1 39.3326 18.9469 45.3767
1 44.2324 22.1257 10.3482
1 20.8825 31.2556 6.10332
1 32.8155 19.1359 23.5253
1 5.46264 46.3707 2.89385
1 0.884766 24.5046 0.873623
1 0.125779 23.4924 41.5075
1 0.443544 10.6792 19.3339
1 12.0683 35.7101 35.0256
1 47.0729 24.652 8.10046
1 23.7424 0.67194 33.6678
1 16.2257 21.8323 49.078
1 28.6405 47.5975 5.89067
1 26.2955 46.4441 9.78557
1 27.3486 39.3892 30.305
1 2.32393 2.39212 36.9602
1 23.8365 34.1356 25.8853
1 47.6427 25.1674 29.9856
1 12.185 9.10933 39.1733
1 37.0745 27.1011 27.3209
1 18.3191 20.7814 38.9327
1 42.6303 11.783 28.9894
1 37.8786 21.4563 5.67594
1 49.5752 -0.00893687 37.4008
1 27.5817 25.084 24.9914
1 13.0768 45.0346 21.6205