4096
 Atoms. Timestep: 2420
1 10.1698 30.3269 12.4259
1 24.8121 19.6097 15.5616
1 34.9676 2.96476 31.9363
1 16.959 42.577 10.0795
1 2.03918 12.8343 24.5037
1 18.3668 45.8671 37.7909
1 26.1691 36.4236 6.54191
1 31.2379 40.0194 15.7121
1 1.73677 44.1877 35.3692
1 40.9262 48.3086 23.5473
1 30.6559 10.0835 46.1377
1 44.0058 47.6586 32.1564
1 12.3472 1.35082 6.56871
1 3.46615 20.5194 24.8578
1 31.0642 27.6413 5.08262
1 25.0556 5.73652 13.5511
1 38.4462 3.07427 41.2043
1 4.12957 24.9444 5.62051
1 14.0892 11.9057 16.3236
1 9.50199 22.4291 4.71649
1 42.5439 13.3006 9.02034
1 8.81676 24.7016 11.4999
1 4.12334 35.7728 37.8705
1 45.592 16.7244 19.6407
1 18.5049 14.8059 49.2749
1 47.6132 38.0081 19.9058
1 46.5834 8.5325 20.0532
1 18.5318 18.6226 20.1131
1 16.0704 17.5577 29.6156
1 1.615 45.8394 47.052
1 29.9401 42.2578 0.884941
1 3.62065 4.88082 14.128
1 36.8071 2.02501 14.758
1 6.88723 25.8116 14.2804
1 25.993 43.6593 44.895
1 10.2493 43.9463 18.4173
1 17.6085 11.6123 7.66494
1 17.11 28.3858 42.625
1 3.66877 36.084 10.1198
1 36.1672 8.55463 19.5016
1 31.4392 35.0063 30.7804
1 30.7835 32.2879 21.9448
1 9.47302 38.7033 17.7803
1 37.8047 34.2948 43.1421
1 3.82745 8.06418 17.1012
1 17.8391 24.1434 37.6122
1 42.2618 27.7279 29.8421
1 6.5302 32.9851 12.064
1 11.8565 47.3132 27.5378
1 14.6968 36.4188 12.1869
1 15.2772 0.268096 23.1254
1 35.4704 10.8078 49.5735
1 18.4529 17.5925 36.9285
1 10.3328 26.5049 46.2714
1 38.9073 22.7331 5.74966
1 29.4828 26.563 29.7638
1 29.7976 19.3759 15.5936
1 46.5188 48.4232 36.312
1 36.7686 2.03142 5.96438
1 23.5979 25.7625 8.78551
1 29.9142 24.9768 34.7781
1 11.3739 41.5908 34.6736
1 45.3901 40.9875 49.322
1 8.55278 13.581 41.7151
1 43.4841 47.958 8.04493
1 8.88318 4.9245 19.623
1 39.6208 6.88269 43.3863
1 41.1439 5.99108 19.0616
1 26.5741 13.2435 41.5549
1 39.4052 21.3453 9.25154
1 25.305 4.25963 33.8841
1 30.7208 23.8109 23.6167
1 23.928 49.6959 21.5991
1 30.0388 34.9674 5.93742
1 29.1951 0.91996 26.493
1 11.7838 49.6169 33.5884
1 40.5726 32.9288 8.13349
1 16.3731 37.109 22.532
1 25.9771 24.6308 18.4261
1 1.51233 25.7489 5.14142
1 41.3377 7.1805 49.0713
1 29.2698 6.57049 33.6998
1 17.4738 6.34842 7.50886
1 44.969 45.4483 9.85415
1 28.0487 15.8151 15.3993
1 20.1689 48.603 42.9741
1 13.0947 44.8212 11.9364
1 8.30394 41.3698 5.80924
1 0.579642 12.4052 13.1502
1 43.3613 40.709 26.7936
1 24.1006 0.109816 32.9605
1 6.90743 36.7749 13.1168
1 45.978 2.235 2.01913
1 31.511 5.36157 15.7434
1 18.5419 5.82625 27.3215
1 48.6922 8.96252 18.0707
1 18.9008 0.977092 33.5787
1 16.9408 48.8872 48.133
1 19.4513 8.03617 48.511
1 7.68974 36.2427 40.141
1 36.5262 23.0072 26.3001
1 27.5596 20.6146 3.62393
1 24.6334 32.317 2.00582
1 16.8929 42.0245 21.069
1 4.41133 2.80264 12.9989
1 41.3285 34.5219 24.4344
1 44.402 16.9317 6.52732
1 11.466 3.79968 3.48692
1 38.8353 4.17487 43.5265
1 10.5332 41.8647 42.7388
1 39.1545 40.6128 21.4159
1 19.6434 44.2603 16.2821
1 27.0372 29.3632 24.5116
1 1.35213 35.9077 42.0642
1 28.9763 29.0985 14.3788
1 26.301 23.9194 14.0342
1 26.9783 16.9648 38.8675
1 38.786 3.05308 33.921
1 47.919 22.9051 29.9222
1 19.6447 0.478233 14.3486
1 13.5803 23.0059 0.373311
1 36.972 10.8947 16.4224
1 41.1074 11.8661 34.3322
1 16.9187 40.0596 3.17018
1 17.4799 6.59677 31.0508
1 44.2796 20.4511 18.4778
1 32.3172 32.7114 33.9805
1 0.187093 16.5037 11.761
1 32.6945 1.30681 39.9078
1 41.8569 2.36154 6.96872
1 14.6356 38.3035 24.564
1 40.1316 21.7095 26.8483
1 27.5934 6.2076 49.6483
1 25.1842 34.965 14.9182
1 4.38811 5.24274 34.4907
1 44.3723 35.2159 13.8542
1 3.9055 21.7991 7.62647
1 25.038 45.527 21.657
1 38.8072 5.97719 36.7634
1 46.3662 32.0355 18.9915
1 23.8012 16.0824 43.0166
1 29.3256 29.6783 26.0651
1 15.8095 14.3256 0.796853
1 30.7488 1.39414 11.9882
1 47.9913 34.1758 18.9537
1 48.2682 40.8785 19.1809
1 1.26641 14.9495 7.1965
1 44.0656 45.0416 37.3273
1 15.6778 18.4232 48.5932
1 47.6324 31.0866 8.51429
1 11.9229 16.7189 0.15107
1 41.1648 5.57079 22.2089
1 12.4596 15.429 22.1045
1 4.50547 41.3686 31.0553
1 5.87194 23.3331 14.9579
1 2.59353 1.78766 15.4468
1 39.4774 8.40278 35.567
1 26.2475 4.34725 27.2448
1 39.5942 0.933225 5.25855
1 38.5426 17.5008 1.61602
1 34.2804 3.36522 4.85636
1 16.4572 4.84989 5.503
1 48.5907 10.9545 38.1596
1 31.0516 16.4425 11.8051
1 39.1877 4.61 11.4109
1 0.287941 0.703361 9.44479
1 26.626 15.874 17.7274
1 42.9705 36.7946 26.5273
1 37.957 44.4791 10.7076
1 20.269 11.1832 47.135
1 27.1742 8.38171 26.9696
1 31.244 34.1493 44.2742
1 14.0287 10.0164 23.8084
1 27.0415 28.1649 39.5359
1 29.3373 40.276 14.1232
1 19.3332 33.8459 6.86222
1 7.81003 7.03778 6.73202
1 28.558 48.6576 35.9672
1 20.6603 28.4062 30.744
1 9.67105 33.6809 36.9181
1 46.7817 17.0619 25.7494
1 13.9672 2.8031 2.67799
1 33.662 34.1038 35.9862
1 9.25489 28.903 44.6934
1 14.3054 4.57322 43.8949
1 33.2048 21.3768 33.4124
1 20.7394 8.9431 38.4115
1 9.04661 29.3688 18.7542
1 33.0826 40.9595 36.2169
1 8.67864 48.3339 9.29688
1 0.14531 35.3613 36.4306
1 12.2907 27.3334 42.5047
1 32.5009 24.1546 44.9292
1 4.72472 49.5854 1.62293
1 47.3433 7.70155 23.4637
1 27.8107 2.44693 40.8837
1 46.9862 5.91031 9.38774
1 37.4299 27.3977 14.8149
1 33.2491 21.0652 25.3899
1 1.59201 18.7982 24.2772
1 21.7163 11.3123 24.0922
1 11.955 11.8528 0.410172
1 6.94105 10.4584 14.8874
1 48.3797 10.3757 24.0289
1 46.8939 8.77445 46.0812
1 11.288 44.2415 15.5885
1 18.6894 15.2518 5.45048
1 39.8589 36.2909 0.845223
1 23.8911 2.13555 8.46005
1 23.1584 28.1407 26.1373
1 38.1135 47.3617 26.1085
1 39.2386 3.50947 22.0228
1 38.1054 21.9503 35.557
1 1.75243 43.6145 2.63779
1 14.7818 39.8465 15.3661
1 4.03893 5.50949 26
1 10.5216 30.0176 31.5677
1 28.606 36.021 25.0399
1 6.72479 11.6141 7.75026
1 43.7555 12.6785 1.62902
1 24.2509 0.156131 18.7456
1 48.3588 43.0238 47.0486
1 33.2196 9.11635 48.6473
1 16.5715 8.16497 47.5145
1 27.7166 34.4552 18.7447
1 19.2009 18.4432 7.34808
1 35.9232 17.7864 26.8827
1 0.536236 16.2083 16.4086
1 18.8828 13.1167 4.05504
1 24.8012 45.6607 2.22203
1 18.0477 27.1601 12.4433
1 30.3056 38.3778 7.41206
1 27.5987 25.2595 16.2939
1 23.4732 9.63586 26.9521
1 25.6226 8.83181 46.1334
1 34.3694 40.2893 18.3579
1 13.0449 16.498 37.0247
1 49.6702 2.53807 13.3343
1 48.1092 27.0358 8.07879
1 49.1834 23.1102 43.7338
1 35.2475 22.8821 15.4778
1 15.7732 38.3799 46.0352
1 39.006 19.412 29.4716
1 0.196355 10.4738 5.73961
1 18.8617 45.6918 44.8529
1 11.8157 17.3124 13.4356
1 18.8995 42.1076 23.2783
1 17.6353 34.5498 41.9072
1 35.8444 7.03471 6.02851
1 22.9649 3.81634 21.4725
1 41.9091 30.9887 48.7076
1 18.7223 25.2003 47.6781
1 38.2062 47.1016 14.4421
1 28.3993 13.3682 34.0135
1 10.7188 14.8067 18.7952
1 7.77695 41.3401 48.8115
1 43.8157 14.3001 22.9993
1 0.245426 5.7032 16.3949
1 46.3413 28.0763 41.2019
1 0.0903145 46.6487 35.9454
1 14.9489 17.2348 17.2413
1 19.3821 17.5493 48.8205
1 37.4874 1.29784 32.4641
1 44.0519 6.70965 41.2772
1 45.4961 45.0638 12.479
1 9.04285 0.754978 24.779
1 27.2241 20.0293 8.31447
1 16.3078 36.4305 44.3144
1 11.7266 48.9191 13.0124
1 44.5506 32.0305 30.495
1 11.886 37.0319 24.4212
1 36.494 16.1574 21.6399
1 39.8278 47.7099 4.77566
1 10.8561 17.7722 4.23511
1 17.5327 28.8824 0.118132
1 0.708453 29.6172 49.7447
1 2.9117 38.3145 30.3218
1 39.6169 21.7381 33.256
1 33.5148 46.8908 46.3767
1 4.63586 47.7053 37.4965
1 24.4293 12.8416 0.965634
1 15.8772 21.1719 17.9051
1 2.00404 3.71461 44.9755
1 11.3285 21.8146 29.211
1 21.508 2.38325 11.2792
1 12.6638 20.5445 6.80384
1 13.1063 15.9938 4.78323
1 46.9318 43.1964 28.1417
1 48.836 26.9536 17.2423
1 33.5616 25.1769 27.4667
1 45.2737 15.8871 42.4294
1 1.65808 24.1102 46.8541
1 43.1806 23.9697 34.5879
1 6.40305 41.2037 40.5682
1 42.9646 19.2547 39.8819
1 37.7415 29.3639 4.62209
1 41.0699 15.6628 6.38107
1 31.3977 28.1283 38.5863
1 42.5382 18.203 24.2007
1 23.7402 5.33344 37.3553
1 0.708937 37.696 13.3456
1 13.3267 38.6071 11.3017
1 29.8068 44.8662 14.9697
1 18.0442 13.8477 25.6465
1 7.18826 3.47152 40.648
1 38.0703 21.7154 12.1992
1 10.4661 5.5055 21.8833
1 40.6985 9.26801 16.4669
1 7.48991 5.44145 12.0774
1 16.174 24.6935 43.2058
1 11.1005 37.2341 33.3508
1 43.3924 15.8172 47.235
1 7.78666 44.3078 33.2289
1 41.3699 48.6284 13.7596
1 46.2238 26.9183 24.7236
1 43.8993 39.4683 46.8495
1 34.1612 6.33883 4.16817
1 3.32415 14.6441 10.8882
1 35.1594 13.3743 40.1856
1 16.947 3.26971 27.2066
1 44.1287 19.6578 6.21342
1 29.9546 28.2762 7.48174
1 43.4862 29.3716 37.9262
1 11.3112 43.2605 31.0151
1 9.65699 46.4373 28.911
1 48.7701 26.5158 41.7363
1 3.90983 36.9207 32.9657
1 3.3287 18.3712 45.3128
1 38.3895 15.1243 10.8967
1 49.2717 6.55437 2.14234
1 31.2235 33.8261 18.0974
1 18.8577 13.631 8.77619
1 16.5085 35.7007 27.0483
1 30.0323 46.7149 37.5646
1 43.0946 13.0526 14.3628
1 30.6984 44.9637 6.19317
1 42.4595 37.1858 34.2427
1 45.9312 2.94313 44.4601
1 7.1789 39.0224 29.9884
1 1.33159 3.15653 34.8219
1 13.3339 6.79772 33.5365
1 47.5311 20.4092 33.6008
1 4.58895 25.3665 46.7354
1 43.4467 3.39745 36.3088
1 38.4891 14.5641 36.6651
1 10.6624 13.895 3.11497
1 3.37199 14.5948 26.4335
1 1.72136 7.67161 35.9297
1 27.8827 31.6695 35.378
1 29.8795 22.5103 12.4477
1 23.4624 5.09889 4.94802
1 37.704 21.4848 3.34255
1 43.4867 31.0262 3.70135
1 24.8729 20.3846 40.427
1 2.74701 31.1973 38.1816
1 43.4709 22.7946 30.2193
1 1.92208 8.27377 31.7101
1 8.60199 4.00184 7.91671
1 3.16566 3.40669 27.4281
1 21.5613 1.46476 19.5868
1 18.3119 21.8015 17.8704
1 48.3408 41.71 32.6473
1 27.9655 1.06921 1.44159
1 22.8282 25.1577 45.3533
1 41.3732 38.9779 21.1716
1 16.0922 27.3137 37.2255
1 10.8743 5.54067 13.5983
1 30.5319 13.4174 21.7104
1 14.0303 15.77 14.4846
1 4.22141 17.5061 30.032
1 3.8325 48.2119 18.422
1 42.1998 11.0842 47.1099
1 20.595 49.6607 10.3699
1 27.5915 10.8382 46.1398
1 47.3295 34.8629 39.7526
1 37.6534 36.2283 17.4425
1 8.05313 33.7312 10.0269
1 33.7572 41.66 4.59546
1 16.5034 12.3295 2.49215
1 11.2415 14.2733 40.9033
1 20.8481 9.39183 25.5631
1 0.434003 43.2102 40.7506
1 49.3529 37.5236 32.7109
1 47.3967 46.5568 9.46247
1 29.7944 46.0308 44.1592
1 7.5176 0.720392 36.4094
1 20.3191 23.23 11.2954
1 30.17 15.2194 26.9713
1 21.8409 11.938 42.7505
1 23.5962 43.4803 12.4535
1 9.3874 11.0619 47.7017
1 7.72249 19.0783 11.3309
1 6.62894 23.4408 26.5923
1 43.0556 20.2119 26.7332
1 0.453285 1.10817 36.1065
1 19.4179 4.19496 36.6902
1 21.4288 34.1076 25.8976
1 19.9982 21.6602 4.23851
1 45.3935 23.2555 3.2301
1 40.3109 12.2032 41.9557
1 32.218 38.1483 2.44984
1 13.9058 13.9414 27.6132
1 28.942 4.47148 19.1694
1 16.18 31.0348 0.888964
1 1.63307 41.5465 4.44032
1 5.10041 25.7974 44.1522
1 30.0467 16.0018 22.9326
1 40.4715 39.0579 1.94045
1 19.7727 21.119 20.3866
1 22.7966 25.6792 27.3306
1 22.1627 25.512 4.91166
1 10.1697 47.7112 42.8841
1 17.6981 40.3609 8.6986
1 15.7884 44.9083 38.8581
1 34.2464 47.9662 27.9636
1 19.801 4.39918 39.3851
1 31.02 32.0624 29.7428
1 16.184 24.778 47.4874
1 49.5823 39.8714 3.13468
1 2.35216 14.4515 4.66941
1 14.8934 2.21673 25.9803
1 29.4945 0.781712 44.1617
1 22.1085 20.7365 30.7582
1 3.19382 4.48589 30.0353
1 23.1652 23.0626 21.1245
1 27.0227 10.971 0.579965
1 9.75574 13.1471 46.2492
1 11.9789 28.5933 33.9601
1 11.576 39.8356 21.0081
1 46.3839 19.4963 19.9184
1 29.4693 7.64932 28.5386
1 28.427 46.3709 28.129
1 27.1702 38.8899 34.1588
1 46.4394 32.9381 6.94396
1 39.3679 23.5046 13.904
1 18.157 0.743902 7.93416
1 19.5968 19.6408 30.2634
1 34.6888 33.8036 23.4107
1 28.6135 48.6756 32.1027
1 14.2658 21.0527 24.588
1 4.26743 41.7462 24.2091
1 38.4584 6.25929 5.59863
1 46.3737 8.80374 2.6318
1 33.9757 1.66465 45.9557
1 44.2183 40.3258 37.6967
1 41.3358 19.2032 28.8895
1 3.09477 28.0851 19.4606
1 7.19582 30.7832 6.2162
1 25.958 7.103 1.67346
1 31.5582 30.3426 13.817
1 38.3432 2.9585 19.3825
1 23.2074 40.0939 41.0836
1 13.7586 34.8736 30.363
1 16.9647 8.56351 44.0403
1 8.14889 38.7499 26.1622
1 28.4343 8.96827 19.6555
1 17.3223 33.8609 18.0603
1 21.7329 10.6277 18.0364
1 10.9204 10.1579 7.45442
1 31.4325 27.9184 25.3357
1 40.6875 40.6574 40.7826
1 4.28611 21.0358 33.4738
1 5.8888 15.9575 8.18171
1 8.48472 3.00671 32.0677
1 24.0296 14.2736 14.9827
1 37.8199 43.0377 32.1242
1 22.281 17.8357 27.7512
1 2.69492 1.27297 6.23428
1 14.4938 0.628199 4.74815
1 45.8445 37.5861 47.1421
1 35.2979 33.5033 28.6818
1 26.4708 38.7657 46.814
1 9.81733 33.8283 3.20377
1 22.8036 23.6679 1.09731
1 18.3592 21.8086 22.9514
1 46.9056 15.3168 0.748461
1 15.559 27.5555 18.1224
1 44.5253 4.74072 32.808
1 2.68069 44.2377 17.7827
1 5.85736 5.53377 37.2336
1 41.715 6.88095 2.21114
1 47.0354 26.3207 13.2429
1 32.0842 10.7753 14.663
1 8.112 3.33684 38.0655
1 4.18894 7.96702 29.8532
1 22.3495 28.8005 45.1243
1 41.8508 41.5094 28.822
1 14.5219 5.50435 46.5656
1 32.192 44.6288 23.4736
1 48.3448 31.0192 37.2902
1 15.2219 34.044 23.2102
1 16.0108 18.3799 33.8787
1 9.52157 35.4359 13.8324
1 26.7067 7.06056 40.3759
1 15.0315 33.2493 42.0548
1 10.8549 26.7235 30.9081
1 12.2698 0.27997 36.1008
1 3.55111 43.0798 37.2154
1 46.4298 6.84069 32.1127
1 35.5935 42.2671 43.1961
1 27.3102 4.25099 23.3104
1 7.65092 33.5231 14.5709
1 48.3471 17.5267 7.89173
1 15.0547 39.9864 33.4542
1 27.0113 36.9773 17.8933
1 2.67103 32.3827 45.5586
1 1.20521 37.7123 3.64344
1 2.35763 9.9128 3.68143
1 14.0202 42.3282 44.7313
1 13.2945 33.2357 25.2267
1 16.6375 36.5995 18.1018
1 21.6897 0.629483 34.339
1 49.3029 16.9221 44.9109
1 9.23741 41.9488 32.8492
1 48.5099 16.3988 31.2969
1 2.45292 10.2517 47.1621
1 24.4042 21.9517 38.3555
1 16.8496 49.7366 30.5461
1 0.79542 8.88923 43.4228
1 5.56486 1.37671 49.1152
1 38.5987 24.5318 3.52168
1 16.9268 14.8763 22.7332
1 35.1085 27.345 18.1181
1 20.6671 20.5838 46.3647
1 3.0299 1.83203 30.8406
1 36.5893 39.9895 8.80631
1 26.5056 33.4176 5.11341
1 45.1364 18.5752 30.1082
1 49.1414 13.1167 39.8524
1 35.387 25.1778 8.09015
1 35.4079 39.5472 28.7591
1 26.2416 33.9898 48.5933
1 38.4444 24.2578 40.9226
1 15.3087 44.119 41.5092
1 43.7792 31.3448 7.35692
1 35.0708 38.9469 13.1674
1 34.6506 5.53844 46.169
1 49.1459 39.5154 36.5652
1 25.9006 21.8666 19.6139
1 12.3591 6.46019 25.7079
1 36.2281 27.0148 38.1071
1 3.85047 6.57546 40.9472
1 11.417 45.0155 23.3355
1 35.7357 4.4036 9.41059
1 9.31015 6.87591 28.5864
1 27.3769 34.8776 31.6906
1 39.5017 29.4548 6.86963
1 48.2659 9.72908 34.0691
1 1.31383 16.4371 26.9598
1 9.20319 41.1946 21.6137
1 29.417 16.4628 32.0088
1 25.6257 0.962716 25.788
1 3.61341 23.3969 49.4086
1 5.81164 26.7296 5.26829
1 12.5631 48.2845 17.4175
1 7.23888 43.6786 24.2787
1 36.6057 48.6598 13.2626
1 3.91478 6.81276 6.76687
1 5.86907 35.0349 6.19417
1 10.1947 1.25907 39.9665
1 36.8763 0.698396 3.31941
1 49.6143 17.0692 47.46
1 40.332 24.716 44.7658
1 34.382 20.2753 21.1387
1 39.5839 33.2662 20.0553
1 4.36307 31.7015 47.5119
1 45.5367 30.7785 16.3023
1 22.1115 44.7808 43.2129
1 47.1804 2.42971 25.7397
1 27.5723 20.7488 39.9563
1 46.684 4.28058 18.3405
1 33.4909 7.97176 46.0253
1 15.3351 4.35761 29.1484
1 6.83291 23.1015 21.9069
1 3.92725 0.200099 28.8774
1 32.0915 36.7556 18.3598
1 12.8435 2.92034 36.3796
1 7.54374 36.3524 2.88136
1 0.49866 0.0262595 45.5693
1 46.7593 0.920325 32.7536
1 41.5613 37.868 45.8527
1 39.1869 12.5083 1.29446
1 11.9932 18.3449 43.8174
1 48.143 34.8175 25.8057
1 9.75728 21.5847 15.2539
1 25.3771 0.986035 4.63601
1 5.09251 39.5325 39.1312
1 14.6098 2.91406 38.6611
1 26.7307 14.9125 9.4589
1 17.9892 9.95791 41.6718
1 5.92514 20.0928 8.18148
1 45.0904 13.9025 3.68214
1 20.7765 24.18 3.17093
1 37.5949 33.9884 40.6344
1 35.816 26.1863 12.7197
1 1.84561 46.563 17.1242
1 45.798 14.3542 20.9258
1 6.2576 42.3118 22.0119
1 17.7001 35.3682 24.6315
1 49.0538 13.9335 17.258
1 38.1779 25.2808 15.795
1 29.6783 19.8735 23.8376
1 16.7167 22.6966 6.97521
1 12.1486 2.21088 49.4607
1 15.2791 48.0728 3.50228
1 44.0498 0.0181103 12.1296
1 11.9533 30.2665 23.472
1 33.2901 48.3394 32.0196
1 12.3404 46.0306 46.4906
1 45.0648 38.2317 33.7879
1 4.88384 23.3847 40.1678
1 23.9189 30.989 42.2625
1 5.34776 7.40932 21.2966
1 44.7795 4.79818 2.19149
1 11.7985 39.2351 47.5626
1 13.3366 43.3941 14.1055
1 30.4915 9.84104 10.448
1 4.78847 4.15741 39.2318
1 5.15531 45.1405 28.7368
1 20.7708 33.7079 28.3449
1 0.527493 47.4725 3.95993
1 30.2743 10.5178 2.34365
1 19.0604 40.3989 37.4125
1 29.0546 1.7101 30.0412
1 13.183 45.054 32.0837
1 45.1054 8.5268 24.8634
1 33.0776 25.8827 5.19403
1 9.62258 16.7251 1.68697
1 48.3084 24.1262 3.36703
1 26.0571 48.1848 13.1255
1 48.7448 44.7179 29.4822
1 22.081 11.4068 33.2057
1 13.2728 19.2064 48.2869
1 5.31951 5.81541 10.6506
1 45.6809 0.313616 45.2025
1 49.1902 47.2179 38.8812
1 26.3502 23.559 8.36853
1 4.58065 39.2486 28.7153
1 0.0311585 0.101679 20.7676
1 13.9569 26.4805 48.5442
1 2.58282 45.1823 40.9218
1 2.97139 23.4851 15.7408
1 39.7219 22.1249 41.5994
1 9.9932 12.4514 26.5073
1 0.999947 44.52 6.9788
1 41.7795 5.36818 10.7363
1 25.3177 34.0757 41.9619
1 9.08305 7.83622 21.8105
1 44.9032 24.7129 5.95285
1 15.5312 38.374 5.16418
1 41.1489 16.8301 0.991513
1 13.0571 2.06009 43.4061
1 6.18353 19.5919 16.8049
1 26.2512 16.821 49.0342
1 36.6597 24.1392 43.0489
1 36.6537 13.5935 19.3599
1 7.61289 37.3407 35.4552
1 42.5445 12.3486 26.7347
1 3.63022 8.30308 33.956
1 19.2431 48.4437 18.884
1 35.5251 46.7162 25.9911
1 19.0491 16.0548 21.2556
1 2.12468 19.6678 34.8056
1 42.2961 9.53604 5.36681
1 9.57519 24.648 29.4893
1 32.3257 42.4325 41.7259
1 25.8461 39.6789 26.9356
1 18.626 44.3828 8.22307
1 33.3864 6.30377 34.2371
1 48.8247 43.6794 36.328
1 26.9035 8.85303 32.2267
1 19.8338 33.3438 41.318
1 10.6948 12.0671 5.85794
1 14.5391 17.2425 39.4422
1 13.2293 49.1912 8.08335
1 31.7139 30.0191 34.8674
1 17.004 10.4064 33.5347
1 31.7903 41.4154 18.3247
1 23.297 33.3227 29.9292
1 15.8285 48.1134 15.0753
1 22.5069 6.30692 9.64293
1 21.5355 12.9266 3.21023
1 45.9922 44.8453 17.2757
1 37.141 28.8585 17.5211
1 10.41 19.3553 28.1749
1 43.6711 34.1985 1.77581
1 45.5602 22.0367 43.5211
1 1.5451 8.45908 18.9756
1 38.9621 45.4476 35.4652
1 21.5202 44.8529 10.9737
1 25.8085 34.6668 37.4167
1 42.1016 45.3903 20.6764
1 21.4415 30.7318 4.71288
1 27.9955 10.2909 38.7094
1 33.9455 37.1928 11.4303
1 11.4837 13.3117 32.0314
1 7.67079 44.1028 49.3481
1 6.82764 18.8655 3.52036
1 10.7839 34.9368 17.448
1 2.38536 32.6813 6.9663
1 11.7321 49.1469 21.0434
1 38.167 48.2137 23.0792
1 47.0664 16.1238 5.94576
1 41.8588 31.7607 19.3546
1 11.0211 27.5327 37.8161
1 19.4683 22.7298 49.4357
1 23.5538 0.411294 12.7874
1 23.1742 19.593 6.82066
1 6.65554 41.7396 13.1115
1 2.75038 40.6298 15.2359
1 24.7063 22.3714 6.69823
1 49.4781 19.626 18.2369
1 37.6036 27.9352 32.8088
1 18.2899 42.9828 46.7856
1 18.7566 21.2525 1.78925
1 46.569 7.10059 11.875
1 32.1528 0.641509 37.1574
1 22.3102 49.5007 15.3572
1 48.5232 14.0656 21.5038
1 40.1058 37.2114 9.91272
1 30.8591 19.3987 34.3305
1 0.0263912 28.3728 10.7619
1 30.2464 8.01372 21.4324
1 35.0169 18.6023 45.789
1 1.4101 16.9094 32.3676
1 47.2497 45.9603 6.58516
1 9.53249 30.4739 42.2548
1 5.35697 42.3483 5.61157
1 21.618 11.5819 7.13241
1 28.9125 12.2254 17.8162
1 11.3355 22.7316 36.9336
1 23.6171 44.9526 30.3929
1 42.9816 32.1756 16.8206
1 40.2652 13.6722 21.2392
1 28.4934 34.2253 41.7305
1 5.82617 0.826363 40.2286
1 32.1303 32.6634 49.4549
1 0.602353 27.6593 39.471
1 16.5428 45.4482 0.216157
1 26.7851 48.2387 29.8452
1 43.8388 3.6239 41.9839
1 34.0712 34.5502 30.9089
1 5.43277 17.3377 37.2021
1 32.6972 22.2814 23.0665
1 37.0548 29.1204 36.5744
1 36.8819 26.9881 0.543594
1 10.0877 19.7733 9.98545
1 22.5487 25.2654 36.6828
1 32.9964 13.9934 1.13685
1 17.032 1.76912 20.3392
1 34.6998 29.8488 13.957
1 0.228339 13.8435 10.3353
1 6.21197 49.1065 7.32087
1 49.328 34.057 21.5305
1 22.733 49.3397 42.1654
1 9.0848 3.47999 5.18656
1 24.566 31.4402 39.5326
1 29.1611 5.40479 6.50039
1 35.4325 44.7491 49.278
1 24.4519 16.5909 3.6622
1 27.2718 3.65479 15.8979
1 11.4276 25.2584 49.3899
1 10.7599 11.4828 21.9649
1 32.0156 5.85972 29.9724
1 40.3194 11.7281 10.5271
1 16.8965 31.1916 9.72431
1 45.6292 15.5846 10.6259
1 20.7817 22.2732 8.61113
1 35.8793 16.7748 12.6478
1 29.6359 19.5662 31.8325
1 16.8458 4.09986 43.7653
1 41.526 29.3044 20.783
1 22.5083 46.7819 0.18891
1 6.52049 40.7691 44.6515
1 10.8132 33.6888 20.9033
1 45.1128 28.9413 4.50555
1 5.68025 35.5335 48.6754
1 2.19918 12.5867 30.0718
1 8.62699 38.8856 11.7086
1 30.1076 30.2287 42.6446
1 37.0447 42.9144 8.66759
1 10.5321 30.3019 46.4823
1 8.53896 30.6598 3.91176
1 22.0037 19.8675 18.9742
1 33.9283 12.7706 10.6462
1 10.6717 8.50933 25.3637
1 41.0155 24.755 3.02004
1 3.63794 28.7481 8.40619
1 45.9639 29.9194 0.0533413
1 24.7936 44.3009 33.085
1 33.3908 12.5185 41.9028
1 31.6279 44.8363 45.9337
1 45.7601 20.3638 23.0659
1 15.021 0.787391 10.7561
1 38.1518 26.2436 20.9575
1 37.0202 32.3714 32.9953
1 49.2737 17.1931 36.2643
1 6.23673 43.6612 39.572
1 17.9145 22.3065 26.1976
1 16.0634 0.635175 18.1093
1 14.9013 14.9233 34.0684
1 35.3053 3.02688 16.8537
1 33.2287 16.6804 7.40857
1 14.8659 7.44149 12.5059
1 3.75141 4.24246 2.08216
1 2.11071 8.6294 41.2552
1 8.76076 6.6478 32.9281
1 4.61621 11.5814 4.26397
1 29.9533 43.507 21.1407
1 30.7535 18.5501 2.12442
1 16.7593 37.4477 0.322172
1 38.7768 29.4569 1.93475
1 43.3612 9.48041 44.6159
1 35.3294 21.8952 2.27337
1 26.8861 35.0164 9.27808
1 0.538451 28.5883 47.0037
1 1.41646 12.4603 45.8148
1 44.9546 38.6328 27.3556
1 30.7562 20.1343 6.07382
1 24.5077 33.9475 10.2863
1 11.1147 48.0333 10.3751
1 8.65018 34.2922 33.5279
1 0.31865 33.8477 27.578
1 23.8798 27.3074 13.8742
1 28.0791 11.7238 31.5007
1 23.8222 20.8255 35.7058
1 17.0108 5.28547 48.7275
1 13.6157 33.7168 38.9856
1 1.66659 36.5425 37.9563
1 8.32658 48.3078 23.6827
1 42.4715 13.7526 45.8086
1 4.00323 12.7302 28.2677
1 42.6362 26.8524 20.3668
1 9.87445 46.6192 45.3696
1 11.9928 33.9116 6.75783
1 24.134 34.8913 22.307
1 12.4691 10.4307 46.7866
1 30.726 37.2907 0.346863
1 2.63118 42.227 7.04513
1 9.29659 22.9605 25.3631
1 6.74923 1.87791 18.2132
1 39.7162 24.1831 49.283
1 41.7259 27.8826 24.2744
1 2.61014 46.1119 24.8162
1 46.5358 32.9345 29.0542
1 41.2811 32.5597 33.8453
1 37.4805 8.71104 33.6597
1 27.6985 31.5312 41.8572
1 7.82164 23.7379 2.08627
1 34.3464 40.7951 32.8926
1 37.6827 39.035 43.216
1 6.50833 45.1657 2.23809
1 6.71197 48.6261 21.6549
1 31.8016 27.8938 45.7391
1 0.105293 5.93784 48.9539
1 14.9822 44.3969 17.2537
1 8.3799 45.6359 35.4845
1 4.64394 5.34116 47.9432
1 49.5608 12.6951 7.58747
1 48.9275 10.3341 0.996837
1 11.2474 6.3766 2.60928
1 20.9313 28.2541 24.104
1 22.5352 18.2122 44.2716
1 42.9475 42.7758 0.114946
1 12.1793 9.96475 41.2932
1 7.76744 22.4578 30.4343
1 38.5702 36.6163 3.50512
1 0.0241454 25.5102 45.0378
1 20.0864 28.999 35.6642
1 17.7426 3.40709 46.2958
1 4.29128 31.4995 34.0044
1 3.41921 27.3456 10.7266
1 3.08609 25.7369 0.273697
1 48.8842 21.9632 15.0692
1 24.9721 19.8899 18.1695
1 43.9468 11.2139 37.8506
1 4.22593 36.9413 23.7899
1 12.2238 24.1318 21.9257
1 16.2012 7.80708 26.8156
1 42.9918 28.6658 34.9733
1 41.5866 40.6277 3.95144
1 9.86319 48.2613 17.9049
1 39.6261 18.3091 15.4823
1 36.2956 6.03445 13.3075
1 22.6864 40.0188 14.3833
1 33.6299 27.3617 48.3223
1 3.49982 27.8624 42.9546
1 47.0683 35.4557 7.48431
1 11.0162 21.9485 18.2366
1 36.9942 28.8442 40.2259
1 6.21691 26.5062 11.3873
1 31.6779 10.9739 28.3511
1 48.9512 17.2789 3.48298
1 1.79344 25.2889 9.85698
1 48.1084 37.902 16.7502
1 47.0172 19.6014 41.8822
1 15.3283 5.16767 1.5163
1 6.08051 30.4754 12.2392
1 17.8113 4.29939 9.32005
1 24.9602 37.1453 16.2727
1 45.8493 1.26001 30.2767
1 34.4949 45.9651 10.1849
1 5.242 37.1204 39.8325
1 12.5926 0.96639 23.3192
1 46.9087 44.8098 21.12
1 24.1069 47.601 30.5616
1 22.8803 20.4122 26.4335
1 27.1194 30.7502 39.1749
1 45.6542 1.54914 18.2851
1 17.5999 7.78491 12.7985
1 48.379 29.2187 22.4135
1 44.4185 26.6235 18.4156
1 6.4861 18.5894 22.5911
1 48.1431 41.0263 48.7243
1 9.63879 45.8233 31.9998
1 28.4833 16.4256 29.3935
1 3.97166 34.3151 19.6582
1 3.29786 19.8508 42.4176
1 0.0981823 21.3945 39.3962
1 22.0551 31.9363 0.847527
1 45.3605 41.1946 35.496
1 18.9509 47.0993 41.2411
1 21.4084 1.38117 1.51892
1 42.13 7.40605 39.2872
1 28.9128 34.5097 46.9254
1 29.0902 10.8576 6.355
1 9.00195 36.25 9.05299
1 45.9579 41.126 31.6208
1 2.4988 11.4836 11.2374
1 9.43285 42.2232 2.8762
1 13.1817 10.8835 12.0919
1 6.62524 32.6766 8.03849
1 42.2646 20.348 20.1574
1 18.4761 7.93349 23.0143
1 10.9731 18.7313 39.7176
1 44.7034 26.0849 42.5667
1 36.9211 0.665145 9.83056
1 6.73504 4.78563 46.5245
1 9.43075 35.3996 24.4247
1 25.3869 39.134 14.5082
1 1.61344 27.2354 21.6709
1 13.8984 6.13313 41.5495
1 15.4501 16.2289 11.8436
1 27.3494 40.864 15.6097
1 25.5275 25.8877 12.1652
1 36.443 25.1357 32.768
1 40.412 45.6207 48.1171
1 11.5634 41.9109 0.739687
1 23.0031 36.0836 46.1078
1 6.6284 14.2549 39.0402
1 13.8759 43.7408 26.6823
1 13.7581 4.63797 5.60709
1 18.211 24.4658 23.4121
1 43.7073 37.0651 42.5599
1 13.2395 45.0197 43.02
1 20.8364 44.0929 49.3475
1 28.4745 47.7364 25.5932
1 18.7347 38.2942 18.443
1 13.2281 39.1285 4.00753
1 18.4639 31.182 29.9252
1 8.7017 39.4993 14.5521
1 47.5244 43.0449 11.014
1 8.05567 12.7828 5.45751
1 20.6512 27.7733 46.8872
1 28.7247 33.5858 27.215
1 13.1473 29.4183 46.8514
1 5.57198 15.7913 25.5781
1 3.8298 12.0275 1.56293
1 0.347236 33.8074 3.16255
1 4.63025 15.139 13.3475
1 13.9338 13.3201 24.1783
1 36.9317 36.7566 13.9073
1 1.45418 27.7699 32.6587
1 13.8309 15.3322 45.9831
1 6.64259 45.7387 18.9455
1 48.277 46.5388 2.38161
1 32.3113 29.9332 48.8746
1 48.0206 21.0808 37.5745
1 32.3686 43.5042 16.2103
1 7.80852 10.5124 1.10489
1 14.4526 38.5894 1.44673
1 15.0424 42.0146 6.97129
1 24.6072 7.21564 6.20985
1 29.4191 42.1959 25.4521
1 44.6591 38.551 1.65423
1 18.7758 39.7692 26.1308
1 8.59214 3.29473 17.0285
1 13.3912 27.5117 4.714
1 35.1465 46.4151 41.3349
1 43.1855 4.52051 44.8427
1 41.5408 14.6636 30.4305
1 21.1129 38.4676 27.27
1 22.4989 0.130833 26.4619
1 7.75185 22.5967 16.6341
1 11.667 42.8845 28.3044
1 21.6022 23.5211 41.2118
1 40.7113 2.91342 26.2321
1 39.1419 3.25584 13.8937
1 34.7101 45.1472 34.3132
1 35.8124 15.2055 29.9995
1 40.3529 39.9833 17.4985
1 18.9724 13.9979 35.3582
1 42.1262 20.0744 33.4848
1 12.9463 44.0388 38.9325
1 30.8947 4.37248 47.476
1 43.9425 34.67 16.6246
1 37.7351 29.6767 23.5033
1 35.0901 30.8229 44.4045
1 34.4814 47.6462 21.1048
1 41.1943 3.53537 34.9382
1 26.5354 5.55785 38.0575
1 12.3468 26.2768 15.6115
1 22.141 15.5498 22.1398
1 11.2349 27.4293 24.3576
1 42.3674 38.9884 49.5657
1 21.7551 43.7908 26.206
1 47.9824 18.907 31.0923
1 17.6396 25.432 21.0637
1 31.5649 19.8877 21.6138
1 37.3903 47.8192 10.8365
1 14.2033 21.6217 29.0827
1 7.72196 16.7752 45.4929
1 28.1774 40.2691 1.32461
1 30.9767 11.7686 4.5014
1 44.2446 34.5738 24.9345
1 39.8747 26.8135 0.0418237
1 30.717 39.1738 22.3205
1 25.9087 12.8121 21.0843
1 40.6476 8.72122 19.2828
1 16.0493 18.7188 21.4775
1 6.45893 30.4674 19.0389
1 20.8278 42.6436 45.9402
1 30.5963 11.1606 23.9565
1 48.284 43.4657 39.1108
1 25.1543 28.2962 31.073
1 34.4768 23.2619 41.0348
1 3.73852 3.05662 10.4742
1 26.0665 26.8545 24.5727
1 29.5862 40.7971 44.4056
1 33.8775 7.95854 1.23044
1 47.5086 8.72089 6.34451
1 43.6558 32.6253 11.6541
1 2.36208 35.3412 26.4305
1 11.3573 37.2906 44.1623
1 24.5835 45.7261 48.3749
1 15.455 29.9519 7.74026
1 2.63212 37.6265 6.00592
1 6.96863 1.34205 5.23692
1 30.9377 23.4808 36.4901
1 4.62537 22.571 4.59335
1 9.29346 38.2589 1.44793
1 49.1664 32.655 12.1286
1 48.6424 23.2464 21.8605
1 43.7247 28.5844 16.4275
1 45.895 39.5254 4.8593
1 28.0042 15.6656 35.5811
1 35.6807 9.2635 45.3748
1 34.8303 22.0188 19.164
1 36.9391 26.9542 4.19239
1 5.96293 18.9336 45.6736
1 43.463 16.0333 4.25202
1 41.7075 45.3845 4.70848
1 45.44 20.3274 27.8582
1 0.486632 21.5164 20.3841
1 22.2152 13.9124 5.62714
1 39.6567 49.5806 35.12
1 36.0904 24.9218 17.4946
1 45.7144 36.6821 35.9945
1 28.9588 5.29392 36.7823
1 42.9166 11.2863 42.3157
1 15.7954 14.0065 16.0887
1 8.73815 29.6033 48.7232
1 21.5434 31.5319 45.2539
1 44.2415 46.0476 6.15989
1 19.5527 2.10733 27.3417
1 8.00552 31.9989 21.2593
1 22.375 17.1111 17.8077
1 13.3285 31.6282 1.34983
1 17.9186 32.921 36.8162
1 21.2925 37.7683 5.02029
1 6.55484 25.5365 19.1835
1 23.4012 42.7279 24.0755
1 12.3163 20.1217 13.8615
1 5.03522 29.2663 6.14947
1 10.4614 16.762 41.9366
1 43.5975 5.37673 20.0968
1 1.35804 11.4726 49.5482
1 31.3464 8.50191 26.4102
1 15.8836 25.388 25.0128
1 8.26138 16.1562 37.5722
1 36.4375 38.0133 38.6369
1 4.18662 31.7938 8.92058
1 37.2827 46.8244 7.18946
1 1.41874 37.1157 17.0537
1 4.02844 2.09663 44.7731
1 36.4713 30.8758 15.7927
1 15.6681 0.386395 1.45051
1 16.9569 10.2232 0.967064
1 8.82968 36.513 5.64193
1 38.841 38.8533 14.3489
1 0.986945 2.52067 49.3093
1 14.5275 44.6545 34.353
1 40.6872 48.0917 46.6372
1 18.2225 10.4491 13.477
1 47.359 21.5852 45.8564
1 28.361 40.5552 41.2207
1 19.8731 33.5557 17.315
1 30.1169 42.929 29.2667
1 4.3987 26.3989 17.9112
1 41.5436 23.4365 42.9364
1 48.2401 38.5092 47.4938
1 43.9551 27.2098 6.33991
1 34.422 2.59812 27.9945
1 35.6499 37.6203 20.4488
1 26.0518 27.0832 8.54479
1 10.0812 49.5415 37.5597
1 25.0902 30.3146 6.29137
1 14.6671 44.8341 29.3308
1 42.791 9.85793 23.2119
1 35.0475 10.7701 29.4665
1 9.97931 43.0909 24.0898
1 10.0979 47.1845 22.0033
1 16.1669 42.9513 25.4151
1 20.2538 26.3923 28.3445
1 48.692 47.6987 29.5811
1 7.41296 32.1916 37.1395
1 42.3405 43.915 26.9655
1 23.0827 17.3041 33.5665
1 47.6812 10.8804 3.83376
1 5.67281 1.12698 9.49839
1 16.6915 33.5608 1.82019
1 3.27646 18.2636 20.4891
1 20.4455 16.3892 26.0086
1 2.00499 6.11607 9.12093
1 30.3887 0.936334 22.1354
1 1.22698 24.9964 32.3848
1 17.7187 41.6625 49.1124
1 45.9836 38.9808 40.7383
1 18.3463 11.1718 36.009
1 28.3037 33.7578 7.45323
1 40.6526 30.4554 37.9184
1 41.4276 26.7104 39.8462
1 39.3919 43.8572 2.5086
1 11.8204 9.96058 29.9146
1 9.47447 31.2628 15.1745
1 47.7983 34.7557 43.9757
1 22.4119 28.7213 41.4047
1 34.7333 19.4914 8.53035
1 4.51592 0.538797 46.8837
1 14.9145 1.97459 32.3768
1 31.9721 36.9287 37.6223
1 22.0783 25.6459 21.6189
1 9.15633 40.308 40.9181
1 24.6391 14.4621 5.35562
1 31.5394 16.4448 48.1438
1 8.50438 28.3215 27.3895
1 44.5432 43.6581 34.7889
1 13.7239 7.48401 1.49569
1 27.9262 31.2981 4.49315
1 40.6248 43.5289 10.3668
1 10.3881 20.4805 31.581
1 35.1101 8.59805 10.2791
1 26.2908 47.5779 42.1293