4096
 Atoms. Timestep: 440
1 4.06336 31.0023 17.3423
1 27.7313 18.1403 11.477
1 35.8463 0.327334 30.3344
1 24.5082 40.7287 8.96073
1 48.2635 13.1076 23.5876
1 15.8004 46.9917 38.6789
1 29.4277 37.8766 6.78938
1 33.5691 44.0224 16.9043
1 2.26235 46.4157 38.4151
1 39.8405 0.604259 26.4277
1 26.8547 14.1564 2.96866
1 39.3477 45.7414 34.7648
1 12.2734 0.205207 6.01597
1 3.05523 17.4917 26.4366
1 32.8977 29.6237 5.88791
1 24.494 5.74636 16.7799
1 37.3648 6.10888 40.2183
1 4.12877 23.4658 3.97064
1 14.7775 11.3981 18.7899
1 7.91783 21.6915 6.30733
1 40.9782 11.1851 9.34597
1 12.9983 26.131 12.3988
1 4.39025 35.7047 39.3212
1 46.8241 19.0997 21.7948
1 13.6311 10.9613 41.7701
1 48.4622 33.5992 15.8063
1 4.29845 8.65335 17.7989
1 12.7786 13.6227 22.2936
1 9.88785 12.9255 30.1497
1 5.04418 45.797 45.5038
1 31.913 39.6764 43.7145
1 6.31822 4.15727 14.2307
1 35.4319 0.825636 8.73806
1 5.65511 26.5036 14.403
1 26.9619 46.7258 44.0774
1 9.303 43.0779 20.4249
1 12.6124 13.8626 4.04841
1 21.0579 30.1318 39.0958
1 2.82011 33.5955 8.29735
1 39.8898 12.806 18.4997
1 29.1782 37.5759 28.5478
1 36.4615 30.2866 19.7823
1 3.88944 38.8872 13.0864
1 37.7389 37.2101 45.3725
1 3.61374 5.08423 12.8732
1 14.2418 27.9451 37.4783
1 39.7925 27.7924 31.0964
1 4.66334 32.5194 12.1816
1 5.40983 0.481651 24.3943
1 15.9191 35.997 9.86073
1 12.7037 5.10499 23.3052
1 32.5525 12.1756 47.3676
1 12.4911 16.1658 35.3842
1 9.52186 26.5399 42.6841
1 36.319 19.188 4.00026
1 34.1626 27.099 32.5061
1 28.4417 17.6501 15.2891
1 45.5466 48.1084 36.7461
1 33.0784 2.48334 49.5176
1 20.3265 23.987 8.6191
1 31.9368 29.7348 33.8537
1 9.97584 43.1271 36.8455
1 45.9456 45.2305 0.0471543
1 9.44103 15.6777 43.737
1 41.9622 49.4073 5.98467
1 5.20854 2.16293 18.5865
1 40.1228 8.09227 46.9671
1 39.5494 6.68345 18.4839
1 21.5248 17.7464 41.908
1 41.26 21.4726 5.23699
1 26.9128 2.35018 29.99
1 26.7582 25.2727 26.4145
1 16.2926 2.11546 27.0436
1 31.7388 34.0719 4.77449
1 26.9048 0.806936 24.2266
1 13.1125 2.12362 31.0327
1 43.0554 29.516 5.15445
1 15.2833 35.3751 23.6299
1 28.3633 22.9866 18.4318
1 3.08306 25.8689 5.1102
1 38.4115 4.36382 45.2714
1 31.9593 5.48387 30.9792
1 13.8916 5.95082 8.58337
1 1.16184 48.4794 13.0249
1 27.0808 15.7768 16.9162
1 23.6596 47.0615 41.0756
1 18.8045 43.7913 11.6212
1 8.77873 37.9741 2.74983
1 3.00952 16.1582 11.7994
1 41.8829 40.8303 34.3922
1 24.2803 3.66934 29.3757
1 8.14847 35.646 11.2493
1 37.6468 5.24565 49.3702
1 32.2474 2.9829 17.8237
1 15.9369 10.5281 26.6575
1 45.4026 12.6826 16.5465
1 17.4126 2.4131 37.8667
1 16.6892 46.6778 46.5755
1 20.154 4.37801 0.29744
1 8.62287 36.1786 41.0679
1 33.2392 21.294 32.2615
1 21.6904 16.4399 1.03881
1 22.2855 24.8785 4.50751
1 16.5046 33.3444 17.8002
1 6.77609 2.10799 16.097
1 39.7724 34.4062 22.2542
1 45.8149 14.9825 8.59344
1 7.6692 5.08781 5.35057
1 37.2776 8.27312 43.1066
1 10.4277 43.6916 44.8805
1 35.1898 38.3888 21.1324
1 17.8977 41.719 18.982
1 30.9852 31.3868 30.6138
1 2.25505 35.2298 43.0812
1 29.1291 25.8736 10.2549
1 26.9785 23.4373 7.29319
1 24.6923 21.4171 40.0522
1 40.7554 0.746433 31.7025
1 47.3244 24.9903 28.5147
1 19.3118 48.7074 14.2812
1 12.7083 24.0323 0.646003
1 38.5155 10.8842 17.0757
1 43.895 14.0633 38.3791
1 20.3259 36.3168 2.72895
1 15.9926 2.48531 33.6679
1 42.7857 20.8034 21.8496
1 35.7275 35.6112 31.811
1 0.178886 18.4023 10.8964
1 29.7444 1.74342 39.579
1 40.2416 8.70179 2.74157
1 12.1061 38.5178 20.9297
1 37.5425 27.4674 26.0682
1 17.7308 5.20634 1.58596
1 19.2497 37.2528 8.82848
1 3.16319 9.01197 31.2336
1 45.2297 37.041 11.1266
1 5.24784 19.3817 5.98967
1 20.3459 39.5726 22.5853
1 40.5277 5.65381 34.7478
1 49.677 35.3836 17.4961
1 22.7055 12.5244 40.5322
1 30.701 33.1487 28.6943
1 18.4344 11.3982 47.975
1 31.1283 0.146387 9.61891
1 47.5086 29.604 22.287
1 2.09786 44.6684 16.3857
1 6.33328 12.6321 5.30995
1 41.0346 45.6193 43.1456
1 15.1008 19.0997 45.5545
1 45.1595 25.1727 8.77048
1 14.0791 19.5939 0.380274
1 38.61 48.2756 18.7708
1 12.7288 21.389 25.624
1 4.49813 46.6338 30.0368
1 4.89951 26.8193 18.6366
1 46.8255 49.0589 13.3256
1 37.7648 8.22908 33.0942
1 19.9029 6.2198 21.6342
1 34.5761 47.5662 4.11006
1 39.3635 14.9354 1.23197
1 32.1952 0.161935 43.9368
1 15.7337 5.97338 4.93811
1 46.7348 15.0508 35.3362
1 29.7606 14.3099 9.71512
1 37.3146 5.21783 9.95928
1 47.3077 49.395 10.1841
1 33.699 16.0857 14.555
1 40.9347 31.8709 23.6297
1 34.1337 40.319 9.88549
1 21.036 11.8282 48.2747
1 34.6262 7.02932 23.9215
1 32.2997 30.864 41.914
1 11.6147 6.27305 25.4828
1 28.6717 24.8356 41.454
1 30.9017 36.256 16.206
1 22.6745 39.6038 49.3317
1 7.41359 6.96701 3.14846
1 24.8088 49.2943 30.7998
1 16.437 28.199 31.6505
1 10.2542 34.0868 37.432
1 46.2559 22.3482 24.468
1 11.8759 7.55528 3.99824
1 31.5136 41.5499 28.9351
1 12.2146 25.2166 47.9641
1 13.0146 0.974196 39.8931
1 30.8126 21.0496 33.8308
1 23.6809 9.23065 34.7228
1 7.02895 31.5435 16.4803
1 32.2205 45.4418 38.3201
1 8.74164 0.474628 7.25665
1 0.0909946 34.4303 38.1994
1 16.3915 33.3808 37.4848
1 32.2611 27.0584 42.549
1 7.52727 46.6416 1.69396
1 45.9427 9.12456 21.9573
1 27.2176 1.49521 44.1275
1 46.1572 3.49535 11.3879
1 33.3236 26.8037 15.7363
1 32.8448 22.1408 27.0523
1 1.42065 18.3036 24.2366
1 22.8386 13.6155 21.6254
1 16.2614 12.6721 3.47243
1 5.48824 15.5652 15.8043
1 47.3638 9.75834 19.4178
1 44.7943 8.89924 48.251
1 13.2364 44.9385 15.1947
1 19.1474 16.1408 5.00955
1 43.8628 34.8805 12.3378
1 21.4932 1.86864 11.2762
1 24.9312 27.1599 25.5416
1 39.6178 41.8692 27.7694
1 40.2298 45.649 22.5647
1 37.9467 19.6652 38.4291
1 4.89246 42.193 48.6151
1 17.7221 36.9603 11.67
1 47.7981 7.17686 23.4104
1 12.3667 33.2157 26.807
1 27.2444 37.0899 21.0122
1 6.23975 7.96118 5.49078
1 48.1003 4.66888 1.56384
1 21.822 46.5834 14.4922
1 7.81403 42.4292 2.3957
1 32.9101 9.80116 1.06477
1 15.5714 5.67334 43.0373
1 28.2122 32.8474 15.0854
1 20.3283 19.3361 9.83283
1 30.3153 23.7686 30.8761
1 49.1999 13.9097 17.8629
1 19.7144 13.1229 1.403
1 24.0562 42.1359 49.6942
1 21.786 25.8446 6.94692
1 26.251 39.6633 10.7565
1 22.9941 26.4568 16.8955
1 21.42 5.12856 23.4814
1 33.2911 14.6079 40.0412
1 28.864 38.3367 19.5008
1 12.1119 18.8476 32.8469
1 2.14573 8.71056 9.38823
1 -0.089283 22.3013 5.44144
1 44.369 28.7224 43.1592
1 33.0526 19.1116 11.152
1 18.7789 41.3375 38.6026
1 27.2233 20.7353 33.7418
1 47.7034 13.5207 12.2589
1 13.7027 43.1395 46.456
1 6.35545 14.9954 23.6856
1 18.9718 34.8625 21.7558
1 17.0718 34.7107 41.9987
1 37.6784 2.7843 5.67999
1 23.9103 6.66791 22.9475
1 40.5072 39.2782 2.38856
1 20.9589 20.1475 46.281
1 36.501 45.8886 20.121
1 25.3808 12.6687 41.3689
1 7.89351 14.3265 19.4568
1 11.6757 41.4075 48.4343
1 42.3748 16.9817 22.9298
1 47.851 11.0211 9.89045
1 43.0182 25.9688 45.4566
1 47.9785 46.4521 40.127
1 18.3169 14.3432 20.0093
1 14.1551 15.4404 1.04605
1 34.9904 47.4227 34.5219
1 48.4276 12.5735 43.8551
1 47.9501 0.51734 18.4085
1 4.59318 0.249871 20.6748
1 24.4596 18.6755 10.0206
1 19.6011 37.4502 40.7578
1 13.1477 45.4323 10.4501
1 45.3305 31.7013 33.4874
1 11.1961 41.2605 23.7243
1 34.8312 21.3174 25.3386
1 44.7211 42.036 6.38581
1 12.1341 16.6741 6.74203
1 13.5532 29.5357 49.1955
1 49.6973 28.5909 4.45776
1 2.20738 40.5794 34.2643
1 32.5221 14.9721 37.5165
1 33.1081 44.5589 43.9504
1 1.02533 46.3193 40.7237
1 22.5477 10.8387 0.465947
1 15.0176 22.8197 14.961
1 47.679 3.93801 44.4818
1 12.9605 23.4215 27.7001
1 19.4809 3.32451 12.5827
1 14.3161 20.2892 10.0191
1 11.4491 14.4439 1.80541
1 48.0225 39.5054 29.6046
1 49.168 29.5513 20.095
1 29.0671 25.987 25.4076
1 42.5836 21.9035 40.6513
1 2.73214 26.4092 46.056
1 41.15 23.2932 35.6437
1 7.32443 41.7404 42.5
1 42.5663 16.2411 41.6625
1 34.7845 31.8215 6.24544
1 40.7669 12.7712 11.4267
1 31.2501 25.1564 40.3463
1 42.7866 20.3015 26.5975
1 25.5801 5.24443 43.2205
1 1.72747 35.739 10.6776
1 12.8678 34.1008 9.51779
1 29.2752 43.7808 18.7213
1 25.3176 11.1974 27.0951
1 0.134917 2.23763 40.1262
1 40.0374 18.1624 8.0449
1 12.4711 4.74422 19.5813
1 44.5664 7.2479 17.4029
1 8.16944 9.46198 15.6617
1 16.3809 25.7991 41.0303
1 10.449 34.4462 30.2692
1 40.0468 15.6096 48.4124
1 6.05981 45.3964 37.2413
1 40.552 47.0041 12.2335
1 44.8914 32.6923 25.3971
1 43.3181 33.3301 45.6069
1 34.2981 5.48076 46.875
1 4.12311 16.0807 9.50097
1 35.4067 12.6072 40.4903
1 20.1639 2.33309 28.6948
1 47.0499 16.4909 10.2242
1 31.5445 25.0162 6.08104
1 42.6665 28.6979 37.0144
1 9.33969 41.9803 29.9511
1 10.0487 48.6028 29.202
1 1.47391 30.4508 39.2856
1 3.7816 36.8463 35.2108
1 2.80814 15.9767 41.4018
1 39.7858 17.1849 12.7293
1 45.2256 4.2589 0.781868
1 32.7413 33.8679 23.4016
1 18.5168 13.7986 13.2704
1 14.6115 39.6172 21.6522
1 31.2542 46.8602 28.9727
1 43.1586 15.6864 9.02791
1 32.9012 41.218 12.4012
1 41.68 38.0539 34.0952
1 45.2405 1.38397 46.9372
1 4.78839 42.4716 32.4744
1 0.391261 6.60273 34.5351
1 12.3832 49.2077 26.0421
1 43.4723 23.5906 34.9091
1 4.11494 24.8783 42.5037
1 44.1223 5.3879 35.3406
1 39.8526 15.6424 38.2041
1 10.4859 16.0238 11.977
1 0.114708 11.6927 25.7371
1 47.7936 7.38376 41.0658
1 29.2546 27.6199 37.7093
1 29.5998 18.1561 8.02688
1 18.3879 6.84857 9.43494
1 38.3688 16.4117 5.60233
1 45.7922 32.2256 9.15614
1 21.1252 22.1521 44.3186
1 3.67244 31.6862 38.0517
1 40.9366 26.2059 29.6993
1 2.2945 13.0434 32.7689
1 9.94078 6.19257 10.5788
1 1.97098 8.32661 23.6615
1 18.4047 1.77269 21.6468
1 15.6618 24.3213 17.2617
1 0.781068 39.0392 32.2871
1 22.3837 5.08744 2.45978
1 16.3527 24.7781 45.2297
1 47.1851 39.4781 23.7632
1 19.7398 26.91 38.1195
1 13.5811 5.86027 11.537
1 31.4576 14.1735 23.7457
1 14.2319 16.6948 18.0395
1 3.44572 16.4682 29.372
1 45.0194 0.278957 16.7782
1 40.9748 12.3236 47.0694
1 11.7118 3.18416 16.1996
1 29.7893 12.1277 47.6218
1 46.6306 36.4936 39.9349
1 39.286 38.5595 21.7082
1 7.88498 33.6909 9.1454
1 34.7227 40.6659 0.737056
1 14.4881 14.6097 9.52304
1 12.0471 17.8253 43.2841
1 12.8253 12.9158 28.7753
1 2.52652 42.7002 45.1201
1 -0.188961 36.7027 33.7324
1 0.0714074 0.427418 10.8012
1 34.0123 44.507 48.4826
1 7.73087 44.7334 39.5961
1 17.1207 21.4703 6.87419
1 37.4127 14.7536 28.8819
1 15.2533 10.9458 36.0896
1 27.016 45.4152 8.49455
1 8.87274 13.8516 46.7071
1 11.1938 14.6294 17.7893
1 3.8772 26.7988 24.4581
1 41.7485 26.9779 27.2667
1 2.01795 0.336943 39.9212
1 22.6956 5.52172 33.5091
1 20.9392 36.921 31.1692
1 22.4864 24.7281 47.9308
1 45.8659 16.1122 2.22818
1 42.1604 11.2046 41.1922
1 39.6318 35.7986 48.6078
1 10.0561 16.1086 26.6825
1 26.5304 3.09498 20.1095
1 15.7983 28.7166 47.5755
1 4.58464 43.9732 0.921913
1 11.7603 24.8938 37.4795
1 32.7263 14.19 26.183
1 40.8564 41.4829 3.70592
1 16.9116 16.0375 18.5652
1 21.2484 24.3828 33.8798
1 19.0862 28.7682 7.43237
1 5.47436 48.5512 42.1025
1 16.5196 41.3961 8.93485
1 11.7916 45.1278 37.1652
1 36.9842 48.5469 26.5868
1 16.668 3.97937 39.9747
1 29.9998 34.3233 24.7784
1 15.4995 23.3608 42.924
1 4.39097 39.6181 2.37022
1 4.01664 11.8304 1.98437
1 11.9719 2.58019 22.7791
1 32.7987 4.84559 39.3731
1 24.946 14.9592 29.2439
1 3.80552 5.10137 29.8996
1 21.5876 24.514 24.0378
1 24.9641 1.47305 2.57632
1 12.1041 10.923 45.5519
1 12.5705 33.0889 31.6771
1 9.29912 42.9664 23.3215
1 48.8293 21.1198 22.0123
1 28.8871 7.9479 27.4082
1 37.1693 4.97003 27.8928
1 27.2373 43.3623 32.7935
1 40.5783 34.6302 3.40327
1 37.4474 22.0273 14.6231
1 14.1654 2.56311 0.861601
1 23.3817 24.0208 26.3901
1 35.2387 35.1335 22.7802
1 30.4923 3.20999 32.0111
1 14.3597 20.9676 21.658
1 3.96229 42.2937 28.1848
1 36.3092 8.47403 6.56767
1 44.1083 8.79425 2.92986
1 25.1619 10.7321 47.6977
1 49.1443 40.4777 38.5886
1 35.5715 19.7859 27.7172
1 49.2234 29.9008 24.6354
1 7.93017 29.389 7.57087
1 21.3839 7.44691 3.69066
1 31.7047 29.2898 16.7581
1 39.3896 0.341048 20.899
1 22.6857 39.5621 37.8114
1 12.2863 36.1496 28.8019
1 13.9897 12.3846 37.5536
1 7.7555 40.0216 26.7971
1 31.9049 10.8851 20.9617
1 20.4612 32.2145 15.1689
1 15.9416 8.41211 16.6883
1 9.09777 10.0339 9.25114
1 34.4243 30.5201 26.0528
1 43.9333 35.9752 39.1382
1 2.02019 21.4284 33.9235
1 8.06336 15.4008 6.95388
1 7.49112 4.48904 32.3118
1 21.6739 11.3314 12.7779
1 33.2809 47.0802 32.25
1 23.6339 17.4454 20.9705
1 0.44923 48.4462 4.84967
1 17.863 47.6418 5.76144
1 45.6047 33.3715 49.3359
1 36.3527 32.1818 27.5536
1 25.9339 40.6221 48.1582
1 7.50823 31.2283 3.89795
1 26.9341 21.8474 49.4196
1 21.1148 17.7182 24.3239
1 41.9299 14.5253 2.89752
1 10.5459 28.3962 15.4248
1 45.2467 4.28759 32.9444
1 2.30882 47.3076 17.2323
1 2.40104 10.1911 37.4244
1 37.8819 11.1616 49.4663
1 48.111 20.2512 11.9101
1 33.3037 12.3341 15.2444
1 7.73263 0.972589 37.2851
1 0.782238 4.24319 30.4968
1 22.6742 30.7397 41.4421
1 43.9951 38.296 28.3629
1 15.9604 8.2671 48.1989
1 31.1258 44.2826 23.1051
1 44.7353 29.4546 38.6325
1 7.71617 35.227 23.6381
1 16.4778 16.5254 33.0663
1 9.82192 34.1015 12.9903
1 24.0917 4.69098 0.159076
1 16.9996 31.5699 44.7975
1 13.2469 28.5108 28.6214
1 13.2094 49.2421 35.9229
1 3.45551 43.4292 39.908
1 47.7063 10.887 32.1249
1 36.7902 47.241 42.9335
1 27.548 0.796248 27.7959
1 4.82004 34.3099 14.123
1 12.6637 12.4361 8.4569
1 17.0611 43.8934 36.8789
1 31.243 40.0951 22.3754
1 3.20752 31.7647 46.5145
1 2.76866 37.0767 1.34777
1 0.158699 2.13373 47.9995
1 13.1194 44.4227 44.1012
1 15.5838 37.5221 27.741
1 17.2287 44.6685 15.5858
1 19.7768 1.18135 33.3271
1 47.9097 15.9682 46.6577
1 8.57346 43.1533 34.1124
1 41.6975 14.239 30.6455
1 1.23187 6.42394 44.6129
1 21.5505 24.6203 39.4248
1 13.3727 44.4445 32.1972
1 47.1488 6.5813 43.7405
1 4.74076 3.4774 47.4165
1 42.1169 28.3308 2.97385
1 22.6985 12.0635 18.4154
1 34.8034 24.4701 19.9518
1 20.4532 20.9729 41.7956
1 5.60713 3.06687 30.5913
1 36.4731 41.3172 9.37938
1 23.8002 32.177 6.02567
1 43.3277 16.3493 30.0428
1 47.055 11.3755 39.5817
1 36.6285 18.9382 11.7127
1 37.137 39.6856 27.5448
1 23.5912 33.9073 -0.197419
1 34.2668 29.0936 35.2943
1 21.2764 42.5229 41.2066
1 39.7032 21.8172 8.00291
1 35.4197 42.1556 6.95884
1 34.2434 5.59928 43.4205
1 48.159 39.9356 36.34
1 29.4863 19.8018 16.8707
1 12.2413 3.0197 27.7782
1 40.669 31.4862 38.6345
1 2.30943 6.74383 40.8432
1 6.98003 44.4042 20.8667
1 38.0486 46.3823 6.86781
1 7.4538 7.37357 27.3974
1 24.8169 32.5745 30.3762
1 39.418 27.5919 3.39874
1 0.123172 11.3771 33.8647
1 0.584739 14.5163 26.656
1 7.68816 42.4152 25.4603
1 39.483 18.2162 30.6392
1 25.3375 1.64567 26.2892
1 5.4294 25.5944 45.6747
1 5.58194 27.7129 8.47643
1 11.5547 47.471 21.5649
1 6.63653 46.5242 22.657
1 37.752 0.996685 13.2219
1 7.09702 7.04098 8.19304
1 2.66533 33.6919 4.22161
1 6.65245 3.5393 38.5357
1 36.6808 45.6676 1.41559
1 48.3023 15.0089 48.9546
1 39.2538 25.4108 41.8374
1 30.7132 23.6876 25.5817
1 37.5708 32.6493 18.7817
1 4.57163 30.3871 48.8072
1 46.7201 32.3866 12.8356
1 24.7222 44.7885 42.2616
1 2.83442 1.75134 21.8807
1 30.2146 16.9141 36.1325
1 41.5408 3.35931 26.9667
1 26.283 12.9423 43.958
1 15.4616 0.963886 31.2635
1 10.0437 22.7947 20.7415
1 2.03476 2.94489 26.0604
1 31.2296 36.7543 19.0764
1 8.69765 6.60348 36.9277
1 8.67122 33.755 3.77332
1 45.946 1.78974 2.52009
1 44.4717 0.62804 35.6016
1 41.6789 39.2499 49.5468
1 40.1394 12.1944 1.51986
1 11.5419 19.7808 47.6712
1 0.841956 34.5367 30.064
1 9.90644 19.4237 13.4787
1 24.1666 43.9091 5.93023
1 5.90507 39.9754 40.8924
1 15.7728 49.3656 39.6476
1 25.2993 12.7113 7.9635
1 15.0971 6.34791 36.9742
1 6.69971 21.7627 12.8588
1 2.41915 6.67302 1.90976
1 24.7048 24.3262 2.2424
1 34.9831 34.6238 42.5753
1 36.0955 27.2814 16.4011
1 9.58888 44.9391 12.7865
1 46.878 14.0789 20.8169
1 48.2105 44.288 26.4413
1 12.6793 34.824 24.5755
1 46.3789 9.39577 14.1848
1 38.9986 23.8968 18.1616
1 25.7216 23.7657 22.1651
1 16.3027 16.9055 8.06229
1 8.76637 1.64502 46.347
1 16.5865 45.1855 4.59767
1 40.1971 1.86669 15.288
1 12.6046 30.4883 24.2983
1 37.5144 1.97151 24.6993
1 13.3608 47.5043 44.3507
1 43.2089 35.5943 33.5531
1 10.4696 21.5192 39.9783
1 29.6177 36.856 36.782
1 4.09899 12.0613 13.58
1 42.2797 1.69682 47.6745
1 14.0738 35.7681 45.4129
1 14.3249 38.2565 10.1122
1 31.5674 5.48198 8.287
1 48.7898 9.75855 40.4705
1 5.81277 44.2371 29.003
1 21.5525 29.6996 28.5395
1 5.06923 47.8388 47.3901
1 29.6407 9.75066 6.90315
1 18.4057 42.3627 40.881
1 35.5925 7.67383 31.4104
1 10.7747 43.101 32.1012
1 47.9061 4.20258 24.8552
1 31.1132 27.6793 6.51591
1 5.74409 17.2249 44.4978
1 47.1814 24.1526 2.93107
1 27.5617 49.2066 13.1575
1 0.438858 46.4563 30.829
1 19.8714 11.0217 31.2224
1 14.4218 17.3132 48.92
1 9.2019 5.2393 14.652
1 40.443 47.6202 46.5191
1 48.0452 46.6597 43.1453
1 22.9317 20.8602 6.90374
1 3.83437 40.4907 30.5539
1 48.8201 45.9862 19.0475
1 16.1971 29.1481 44.2504
1 2.08125 42.2932 47.8264
1 3.41433 19.0342 16.5115
1 44.1908 26.1969 42.546
1 8.50985 3.0296 25.4023
1 48.271 2.45144 16.4221
1 47.5453 6.13841 7.96016
1 27.0505 34.7255 38.2906
1 8.61833 7.05056 25.1081
1 45.6007 17.2324 6.44307
1 17.3227 39.4113 46.3147
1 39.1158 19.6743 5.45518
1 11.4976 2.02533 42.1141
1 8.59067 18.4585 19.627
1 27.1573 12.5846 49.6911
1 33.4857 28.3466 40.5162
1 39.5518 13.5442 23.6222
1 8.14532 37.8156 37.1955
1 37.929 12.533 25.6192
1 1.02024 9.03844 33.1343
1 17.5513 47.6116 21.9099
1 37.1535 44.2348 26.7638
1 12.8318 16.979 20.51
1 3.16518 14.6824 37.2186
1 42.1989 10.1759 4.74679
1 9.75353 29.6037 30.4739
1 31.0721 40.7639 39.5887
1 26.1401 41.6511 24.7798
1 14.4037 47.266 7.89366
1 31.7762 6.36778 33.8473
1 49.4253 43.1664 39.1717
1 25.6728 7.05407 30.7876
1 25.3505 33.256 44.969
1 9.1478 13.0876 3.2815
1 15.2836 11.6254 40.0062
1 7.85791 45.5798 6.05471
1 33.6057 33.6697 30.9657
1 17.0178 15.0702 35.6369
1 28.2258 44.3155 21.4723
1 24.8422 32.3109 33.4306
1 13.2041 45.4644 23.0493
1 27.0659 4.7488 10.0962
1 18.469 15.6289 1.00051
1 49.5232 41.3893 16.1651
1 38.4811 30.7429 13.5098
1 9.45366 23.2894 25.1473
1 45.7666 30.3553 2.39476
1 46.933 20.393 44.7097
1 3.36226 10.6018 15.807
1 33.7793 44.8518 35.443
1 22.9663 43.8637 14.1167
1 27.7783 38.24 35.3102
1 40.8279 41.2238 21.1435
1 23.3936 36.245 2.8115
1 29.668 10.5524 43.1668
1 26.0802 34.3159 9.34952
1 6.11098 12.1569 35.98
1 7.76622 43.4555 47.7481
1 6.549 19.0378 3.51447
1 9.04148 33.724 15.7199
1 1.31341 27.3787 8.50112
1 9.28082 0.12818 18.9223
1 43.3617 44.5165 22.5736
1 46.6443 9.95327 5.23743
1 44.3555 33.2943 17.8024
1 13.1922 26.4386 35.6499
1 22.7339 21.12 0.381263
1 25.0868 4.18013 12.5184
1 15.6541 22.5656 2.68183
1 8.20824 43.008 6.46292
1 6.555 39.8878 14.7008
1 24.9438 24.8081 6.77404
1 48.9303 21.9153 17.8323
1 36.4995 26.3357 30.9612
1 22.4937 39.6629 46.728
1 16.9255 18.1412 47.4463
1 1.30094 9.62004 14.6995
1 34.7293 8.06512 36.8353
1 21.2629 2.65174 15.3658
1 47.0058 12.3803 18.6576
1 41.1487 34.5122 12.4041
1 22.8713 25.4205 31.1941
1 41.4311 24.16 10.8254
1 37.5255 8.20925 19.963
1 35.7945 18.0806 44.6599
1 49.353 17.0303 28.2212
1 46.1502 47.6477 15.728
1 9.38826 29.2245 42.6416
1 6.68885 33.7636 6.35464
1 17.1873 13.3304 9.42555
1 32.4995 12.442 18.9183
1 11.8791 21.6691 33.2322
1 17.9949 44.5682 30.3552
1 45.5293 35.3145 19.1353
1 42.4252 7.12106 19.2851
1 30.4261 36.1799 40.9169
1 6.52882 4.9809 35.9412
1 33.5435 31.7935 47.9885
1 1.69098 26.2811 37.8732
1 20.6354 47.0627 46.5291
1 23.8785 47.2323 24.439
1 44.4262 5.03369 40.6673
1 32.9697 34.8938 28.5572
1 5.86867 19.5857 35.3568
1 32.5138 24.1972 18.3858
1 40.0209 28.5847 37.5768
1 36.2105 28.7852 0.466433
1 12.1857 22.8575 14.8945
1 28.1053 27.8497 35.2972
1 31.9014 14.4183 0.870172
1 15.1413 0.29459 25.6465
1 34.4561 34.0986 15.4577
1 3.19269 12.4389 7.38991
1 5.56956 48.5726 10.6683
1 4.20017 29.1854 19.4599
1 25.5471 0.987145 37.1276
1 9.25444 5.45792 8.02866
1 28.0006 32.0302 38.5344
1 19.5324 4.78568 5.56949
1 33.1863 48.1816 1.81758
1 21.3394 14.5198 5.32399
1 28.6438 4.08885 17.5614
1 10.5956 22.5486 7.92871
1 11.8034 6.84673 21.6871
1 35.3523 6.96819 26.5127
1 40.6271 10.9299 13.1344
1 22.1984 33.1669 10.2033
1 42.1725 16.3568 16.666
1 19.0737 24.3919 1.05375
1 39.8503 19.1789 16.509
1 27.994 12.8179 29.6532
1 17.1716 6.27441 39.1452
1 46.1186 31.1458 18.9532
1 26.4506 45.801 1.59012
1 10.2403 41.0304 45.6606
1 9.61982 32.8447 19.6369
1 38.8596 26.9206 5.82532
1 7.21682 34.4888 49.0678
1 48.9904 6.05085 26.7041
1 7.42105 40.9228 10.529
1 29.2941 29.9881 46.3606
1 39.2752 41.4812 10.6055
1 13.4725 32.3764 49.4311
1 8.99078 27.5625 3.28595
1 21.414 21.7594 17.5987
1 34.0899 11.9814 11.9798
1 9.03785 3.42254 21.9099
1 40.9457 22.4423 0.811507
1 4.8626 25.0154 8.73345
1 45.3762 27.8405 49.2832
1 24.4257 45.3163 31.5916
1 42.5761 18.4504 44.89
1 33.5625 39.3203 48.336
1 48.6532 21.7355 25.992
1 12.2541 47.204 6.46396
1 33.9728 30.4914 18.4879
1 39.8617 35.4535 37.0957
1 47.5808 18.0484 36.3825
1 8.27624 44.5454 43.9331
1 18.5155 21.6549 19.3466
1 8.30613 47.9495 17.1655
1 13.8446 13.3945 31.5874
1 37.7133 5.49202 14.1877
1 32.2408 17.9794 7.03154
1 13.8601 3.07264 12.08
1 5.04115 3.69944 5.38492
1 1.02112 13.6997 40.7462
1 4.36054 8.79087 36.2071
1 5.75907 9.87765 0.696973
1 22.8761 36.8889 20.1422
1 36.4843 20.5776 0.846143
1 17.0023 36.0336 4.16053
1 37.9648 29.8989 2.38838
1 41.6433 15.6961 44.2627
1 34.549 21.2034 2.5476
1 28.9323 34.3932 7.00549
1 0.284656 29.446 48.0444
1 0.00412223 14.4558 45.0848
1 45.6599 33.6213 29.1605
1 25.8737 20.1307 3.77551
1 28.303 31.1337 13.1576
1 9.66958 47.3797 9.64146
1 9.47246 35.5983 33.6329
1 2.81533 34.7305 31.8846
1 19.7837 35.3031 11.1603
1 30.6132 12.6826 33.6428
1 23.9686 16.1423 33.9917
1 11.4761 6.64491 49.5121
1 15.2682 32.6012 42.3181
1 1.518 36.3776 39.3113
1 6.49504 49.0957 22.0965
1 40.086 18.8294 44.8516
1 48.9933 8.6029 25.8112
1 44.5132 26.0843 22.7572
1 11.205 49.3526 45.1907
1 10.1305 34.8934 1.26492
1 24.0623 34.6045 23.0629
1 10.5911 12.9862 44.0679
1 31.9293 37.3414 49.0763
1 5.71098 42.015 6.98066
1 9.84682 18.9006 23.7763
1 4.28707 43.3826 11.2104
1 42.9315 24.5791 1.33326
1 43.5304 28.6338 23.0036
1 2.0585 46.1049 28.6774
1 47.24 31.1399 28.6515
1 39.6818 37.332 32.5049
1 40.8938 9.97151 34.2677
1 30.3155 33.9836 43.1646
1 6.31594 23.0659 1.68442
1 38.2607 39.6316 32.5076
1 40.4251 39.9844 40.1675
1 10.0206 42.7795 4.44212
1 6.46488 49.0205 15.3334
1 29.869 26.7651 0.422075
1 3.92557 3.77554 2.878
1 13.7135 41.9274 11.2533
1 4.62131 47.5815 38.0781
1 2.98476 7.10502 46.7432
1 49.7634 8.12989 11.3226
1 0.784155 8.39915 5.97522
1 13.689 5.34292 1.24543
1 23.0913 31.0998 26.3354
1 23.752 16.5573 45.7159
1 44.9562 42.1438 46.4615
1 10.3369 8.62551 38.5354
1 5.38805 24.962 26.5498
1 35.4671 36.3605 4.97518
1 49.188 27.7226 45.2237
1 21.1874 28.8102 36.431
1 13.911 2.16587 45.284
1 6.30124 28.6213 36.6072
1 6.47507 22.9817 8.60486
1 3.04069 24.1685 49.2955
1 47.2663 24.1989 18.6954
1 28.2615 22.2574 15.9022
1 37.5837 10.1236 40.3211
1 3.60057 37.4796 30.9858
1 12.3667 26.8633 20.1049
1 18.7998 10.0065 20.1792
1 43.0716 29.8406 34.4718
1 43.6902 32.9401 5.03026
1 11.3605 45.7283 18.4523
1 39.0361 19.2696 19.6784
1 35.5733 6.46073 13.0215
1 19.8705 35.2731 17.6542
1 32.2199 28.8124 47.4153
1 3.12601 27.2346 43.4587
1 48.1811 33.5048 9.55029
1 15.6373 24.7664 13.0482
1 30.9999 34.7796 38.9471
1 2.60892 30.0772 15.2028
1 35.6226 16.7838 31.4161
1 0.77948 13.7008 7.07647
1 2.24111 22.6801 7.58867
1 48.7934 38.589 15.5688
1 44.9387 23.7233 43.5127
1 18.2673 4.13856 48.0208
1 6.79842 28.5622 12.8027
1 14.4619 1.82607 9.93419
1 23.8854 32.6114 16.9779
1 48.7245 48.8709 34.5741
1 33.7744 40.5651 14.5577
1 5.90957 37.2409 41.3926
1 3.23568 6.96615 25.5029
1 45.2804 43.066 21.5839
1 21.0256 42.1161 28.1531
1 24.014 25.5081 28.7539
1 27.3969 31.6096 41.2888
1 41.591 49.1504 22.6204
1 13.7339 1.54938 16.1299
1 46.0993 30.7041 31.1676
1 0.419708 25.059 18.9959
1 7.08457 18.9817 24.0199
1 45.8393 39.4001 8.10892
1 7.57059 46.5018 32.1087
1 32.9581 14.4031 33.3641
1 5.40684 33.8583 27.0657
1 1.84601 22.9656 43.1374
1 2.04776 18.3121 40.1628
1 25.3293 31.3194 46.5571
1 45.4656 43.4168 37.2457
1 18.8465 48.8887 41.8247
1 11.6107 9.75956 0.0821221
1 39.4442 7.97331 40.6944
1 27.6061 39.5684 43.5079
1 33.2971 9.59929 10.4548
1 9.93967 35.6854 5.01345
1 0.508904 43.8723 30.7681
1 5.3298 11.1433 11.3925
1 13.8616 37.9989 48.7085
1 12.7179 8.29452 14.7809
1 9.11919 31.0258 9.47499
1 44.9893 22.8007 19.864
1 21.3552 10.2264 20.2952
1 11.2883 18.2649 36.4364
1 47.3556 23.1436 44.9369
1 35.4264 46.7166 7.82931
1 7.42142 3.65904 47.8387
1 10.4402 38.9956 22.9744
1 27.0827 38.0973 17.4023
1 3.60927 22.7917 21.477
1 12.4816 8.07469 40.3154
1 11.9901 15.4042 14.3429
1 28.4231 36.8674 15.3681
1 25.771 26.5382 10.8169
1 36.9327 27.9991 28.7347
1 43.5001 47.3476 1.6279
1 14.7487 40.318 47.253
1 25.4019 37.2792 45.4693
1 4.83249 18.5067 37.5008
1 11.6079 41.1758 26.7134
1 11.5662 4.45307 4.30601
1 21.1324 21.0344 21.5667
1 45.2809 35.6106 43.206
1 15.1934 43.7851 42.6798
1 22.651 43.8609 47.9005
1 25.4361 48.904 21.302
1 14.2114 33.6425 16.0903
1 16.8835 40.1819 1.46561
1 18.0578 31.9256 28.3756
1 12.8142 42.1828 15.5656
1 48.4904 46.3647 11.9301
1 7.72995 10.2502 5.15742
1 22.8062 25.2693 41.8803
1 23.7514 36.5939 28.9527
1 6.56195 27.1059 2.79024
1 2.49736 14.393 21.5694
1 6.24428 10.9107 45.9469
1 2.27908 32.724 1.87739
1 5.26581 18.1333 14.5511
1 11.0811 11.5378 25.4129
1 38.6159 37.0818 15.479
1 6.41598 27.19 32.436
1 8.87646 16.4235 47.3286
1 9.93171 44.6868 16.4944
1 48.8971 43.3891 2.45486
1 32.6797 27.2276 49.4677
1 2.35529 24.547 33.5807
1 32.6373 46.3893 21.224
1 9.40562 9.38482 47.988
1 14.4852 33.0285 47.1473
1 17.7503 40.8925 6.04518
1 25.373 2.84403 8.0562
1 29.4291 44.1988 25.1725
1 44.2539 38.8416 2.58753
1 17.0322 39.6879 28.3918
1 5.8922 4.58464 19.2624
1 10.98 27.2131 6.57052
1 37.9372 40.9098 36.5305
1 41.2235 8.06603 42.9017
1 38.7787 10.8046 32.4148
1 20.3276 38.595 29.2124
1 21.2419 45.0773 22.0158
1 7.56232 25.0058 15.9651
1 10.4633 37.3966 27.2118
1 21.8028 19.9385 37.5809
1 46.4335 49.6198 31.8622
1 39.2145 7.95913 14.6446
1 34.155 41.165 33.2638
1 36.045 16.5955 35.6639
1 44.9057 38.3989 23.5321
1 22.2665 15.5654 35.981
1 36.3776 27.0856 34.5423
1 12.0353 41.5596 36.6038
1 30.3779 9.95107 1.79576
1 45.7998 31.0884 15.6601
1 40.4149 28.7783 23.0679
1 34.8984 28.2427 45.788
1 35.5939 45.7292 23.1074
1 40.3267 2.61547 35.1184
1 30.1239 7.37443 39.2317
1 16.4933 26.9759 14.5129
1 19.5989 18.4024 21.8918
1 11.2223 27.1686 26.8677
1 47.6527 35.1581 5.17278
1 15.6015 40.379 24.3024
1 43.5272 22.432 28.126
1 16.8113 29.1549 23.0987
1 29.3938 20.5818 23.345
1 37.3916 46.2396 14.3988
1 16.5804 22.926 30.0908
1 8.48487 16.9922 41.768
1 31.2659 42.5767 2.07435
1 29.2902 11.4694 9.60878
1 47.7789 34.8464 24.4605
1 40.0204 29.1818 47.3865
1 31.9633 40.2812 19.155
1 26.9832 17.388 21.6497
1 43.1905 14.119 17.6785
1 10.2897 14.8837 22.2852
1 6.05089 38.3724 17.5358
1 25.3814 42.4521 44.321
1 24.9666 11.3519 23.6954
1 46.9712 43.7877 39.9356
1 23.6137 29.8768 32.7617
1 36.2152 29.9545 39.7354
1 0.994999 3.04237 10.8355
1 25.7087 32.0834 24.2778
1 29.3384 41.2854 42.5211
1 31.0209 5.38251 3.0814
1 2.13847 2.11443 1.50527
1 43.0226 28.0014 7.58814
1 4.48196 36.2622 28.5347
1 13.0444 36.6005 42.7657
1 23.1912 46.1141 46.3902
1 19.5941 33.5689 8.07574
1 0.993538 35.4535 4.91918
1 8.97634 3.13878 3.6628
1 28.0716 23.2533 37.3755
1 3.50527 22.1304 1.2759
1 16.2007 35.8882 48.9976
1 48.2754 30.5508 12.1944
1 2.4546 23.0817 19.2107
1 49.5528 27.6633 18.117
1 -0.0484827 39.3573 3.87384
1 29.2507 11.1913 36.8672
1 33.341 8.40529 44.6579
1 34.6688 21.6837 14.4613
1 40.9073 26.0476 7.25234
1 5.88864 23.1573 43.5518
1 47.6573 15.9641 4.68191
1 42.8234 43.0507 2.32967
1 35.8338 25.687 26.0818
1 0.813268 20.726 19.73
1 22.5378 8.63906 6.29104
1 32.1826 1.18696 36.6276
1 34.2261 22.3567 22.871
1 45.6619 37.4372 34.6703
1 29.4089 10.1141 30.2301
1 43.0471 13.7075 45.5166
1 18.6371 11.5335 16.5951
1 9.43911 29.6144 45.3659
1 23.4281 28.9687 0.393344
1 42.0949 38.0009 6.00748
1 19.1588 3.03098 26.216
1 4.55614 32.7839 24.8077
1 23.7209 15.4784 15.715
1 14.6575 34.2309 1.01352
1 17.2912 34.2284 32.5109
1 19.8602 30.6754 48.8361
1 1.90924 28.8134 20.9159
1 23.9331 39.9643 21.5818
1 13.452 19.2099 16.9399
1 9.34 29.5697 5.20556
1 16.5565 18.119 37.654
1 41.3113 4.08579 22.5123
1 2.04178 10.7252 46.19
1 37.4626 7.12768 23.749
1 15.3427 27.3496 24.477
1 7.37382 17.7281 34.0715
1 40.0079 35.4489 39.9979
1 2.56935 28.6138 10.7992
1 33.5663 45.1609 4.16856
1 7.22613 41.7573 12.9854
1 48.9421 48.8868 43.9531
1 35.3407 34.6218 18.5039
1 17.8283 48.2264 0.750533
1 18.965 11.5024 3.87053
1 3.29962 31.5556 6.05461
1 42.6686 39.2898 12.3392
1 47.0779 5.16465 48.1667
1 7.44037 45.4063 34.6749
1 34.761 47.0899 49.46
1 17.5804 5.82445 12.6723
1 1.25732 19.5802 47.2065
1 35.5179 39.6063 37.7355
1 22.0418 32.4908 19.1949
1 29.5624 46.1815 30.9465
1 0.094996 26.928 25.4853
1 43.7826 22.4631 46.2107
1 47.397 39.026 0.935606
1 49.5387 19.9101 2.44642
1 30.2078 1.18055 27.3134
1 32.7376 41.3032 26.3761
1 27.2942 28.1493 8.23638
1 9.1207 0.875714 30.6298
1 24.5263 29.6256 8.36279
1 14.2657 42.3526 27.4843
1 42.6594 9.00088 23.5935
1 35.5494 14.3492 25.3663
1 5.06724 42.428 20.1481
1 10.132 48.7021 23.2607
1 17.4851 42.4288 23.8504
1 16.2754 29.2084 26.4286
1 3.27271 46.5119 34.3113
1 8.15003 32.8285 37.2475
1 1.26946 41.7565 29.1297
1 21.3822 14.3859 30.362
1 1.16779 5.03264 4.16757
1 1.61339 48.7266 9.20176
1 18.4868 32.2562 2.44662
1 49.4488 15.2015 21.9093
1 23.0205 15.6227 23.5008
1 2.81969 11.2002 10.07
1 26.881 0.503577 19.6419
1 4.34154 25.2699 31.5763
1 19.3143 37.0974 47.8591
1 45.8561 38.2997 44.2115
1 19.5113 7.56365 36.1437
1 35.5886 33.9182 7.93975
1 41.4841 33.4245 36.789
1 40.7242 29.7748 43.2427
1 39.4964 42.4404 0.224511
1 11.3758 4.70993 30.4037
1 7.37005 35.8482 16.7321
1 48.3889 35.143 45.0435
1 25.4571 25.3627 42.8369
1 36.3835 18.8849 8.89918
1 1.69431 1.77552 45.6851
1 14.5075 4.2459 28.2301
1 34.5038 37.4457 33.1811
1 25.8538 25.887 13.48
1 9.5519 40.2309 42.3734
1 20.1393 12.3327 6.68856
1 28.6103 15.6268 1.26394
1 8.08367 30.6845 28.3374
1 40.7961 45.1595 40.4045
1 17.1882 9.75098 0.528923
1 32.1472 33.7331 12.0265
1 41.7695 46.3953 6.26615
1 8.67007 16.9644 30.5089
1 33.8879 1.98169 12.6091
1 27.6237 45.5431 41.4151