4096
 Atoms. Timestep: 1820
1 43.297 17.2835 36.4245
1 14.2283 8.30056 49.0154
1 30.3725 0.348962 14.1548
1 40.3688 8.92187 46.3082
1 18.4967 7.53768 22.5619
1 42.801 24.3412 25.6745
1 19.4992 49.4668 36.8548
1 46.5095 16.6628 44.9279
1 3.1035 13.1341 35.6513
1 27.1144 49.4402 13.6592
1 19.1881 48.5864 10.4302
1 30.5955 26.1211 7.62125
1 45.3066 22.2039 35.1045
1 15.6445 28.3762 14.8951
1 31.8637 29.5578 2.38373
1 39.9218 6.59753 14.13
1 48.0521 47.9079 45.8785
1 46.2023 12.7736 27.0042
1 7.43694 26.6972 30.2048
1 4.9969 30.2178 7.4729
1 47.5032 10.5625 23.4203
1 30.2231 42.0134 28.555
1 9.90816 8.28683 41.1307
1 28.417 12.0125 5.2495
1 48.6485 8.43484 10.1935
1 6.23486 5.03588 8.93173
1 15.7049 14.1723 8.29943
1 0.785983 9.40713 30.2993
1 10.1362 5.85847 39.5644
1 15.3795 38.8657 43.8102
1 44.5528 48.8331 4.73733
1 35.7886 5.44719 5.04896
1 38.5761 12.0585 29.0376
1 9.47919 48.8444 10.9826
1 44.1718 39.8559 33.936
1 36.9014 46.7416 0.0718798
1 41.9025 31.696 45.2203
1 26.0675 9.06737 47.4994
1 6.00738 19.179 45.2122
1 0.596255 22.1395 12.4524
1 32.5722 38.7447 39.3442
1 44.4019 25.4637 32.5053
1 26.1825 4.98095 22.8376
1 22.0996 36.513 2.35412
1 15.4047 26.1285 8.90136
1 0.776901 5.68404 31.1052
1 14.9115 22.4669 43.3642
1 47.7864 5.80141 6.93008
1 25.3763 0.707849 6.27165
1 0.0320497 11.3286 3.49839
1 7.41873 18.2177 12.3663
1 2.39391 8.26678 48.0369
1 8.98693 20.6277 42.087
1 7.6888 3.77619 29.5348
1 27.25 33.1575 2.79932
1 30.8186 14.5722 12.7628
1 22.0466 7.08119 24.2237
1 14.8356 6.07645 8.52169
1 25.0569 13.1965 28.099
1 4.07726 11.5945 23.9521
1 31.0923 12.0273 14.2293
1 7.97826 10.8065 18.5409
1 16.5539 5.40065 14.5712
1 17.9134 10.1712 0.163705
1 23.4772 36.331 6.63091
1 2.59558 13.076 45.9303
1 30.8843 36.3248 5.19408
1 5.81096 8.86524 19.1991
1 12.9353 42.5186 15.1302
1 0.556148 47.5445 9.20768
1 3.92919 33.4012 42.5132
1 32.4825 6.81374 47.1584
1 10.7038 39.3509 17.2915
1 45.1958 22.9242 1.00671
1 45.9286 22.2728 48.1832
1 12.5587 8.40198 14.5596
1 27.6905 26.774 25.8137
1 49.5206 35.2287 31.7285
1 19.4396 22.4906 46.9313
1 11.2841 48.9538 22.2809
1 48.7206 4.69617 29.3063
1 36.6942 38.754 46.5527
1 43.8785 35.642 33.4409
1 16.3122 13.2543 5.71392
1 11.3897 1.68955 48.5552
1 19.2575 34.1775 31.4251
1 30.3 47.1929 47.4004
1 32.6431 18.5141 21.9929
1 13.0137 14.0158 42.8174
1 15.9443 10.1357 5.05069
1 48.953 6.52602 13.6279
1 4.51753 19.9712 20.3607
1 13.4422 42.863 10.3079
1 44.4266 8.09972 12.0264
1 34.4926 15.1122 42.0734
1 8.55483 45.225 5.27942
1 35.4732 26.6798 23.6883
1 15.8826 46.0781 32.4788
1 40.0309 17.7549 7.91447
1 7.6611 9.60638 1.55249
1 33.9341 2.89967 48.4521
1 34.1906 48.9275 42.9288
1 2.94932 22.4483 45.9859
1 18.7494 24.426 20.2936
1 8.18354 24.9058 9.22572
1 39.9563 11.0354 44.6173
1 34.4928 0.0352368 9.27122
1 22.2792 24.0716 21.5758
1 30.0713 23.1407 40.0376
1 35.4088 42.7304 48.6669
1 17.5804 1.33522 31.2741
1 8.61003 44.0767 30.537
1 9.1422 33.0892 47.2869
1 3.27946 29.2913 26.6126
1 21.2784 48.4264 33.3181
1 40.0901 7.69889 3.97107
1 19.477 15.4204 9.69459
1 9.27689 25.0166 0.313058
1 20.7621 35.3837 14.8223
1 47.2448 2.78477 31.6108
1 13.0851 40.0028 16.4542
1 10.0403 16.9845 28.2908
1 23.4868 34.6586 15.7299
1 5.52977 28.1601 0.623128
1 42.3051 0.237039 24.8073
1 44.5522 23.623 15.1631
1 12.0802 1.45232 46.0502
1 2.81634 37.6544 8.025
1 19.0672 25.9452 17.0054
1 28.4823 27.3465 32.8835
1 49.1438 8.9298 42.4938
1 13.3245 11.2391 42.5727
1 1.14435 28.1825 39.8029
1 48.3789 40.562 26.2863
1 8.56272 40.142 27.7422
1 40.5514 5.0423 6.62054
1 1.80107 47.2274 1.80844
1 29.4838 26.4211 3.72184
1 34.4704 47.9345 25.2123
1 26.1685 37.4609 36.9986
1 10.5466 26.7031 22.036
1 29.3864 46.648 10.937
1 17.6129 32.5244 8.52437
1 9.44632 3.02798 0.205263
1 24.6772 18.6967 48.4012
1 37.3205 30.2249 16.7707
1 42.5998 12.3154 48.5643
1 29.1062 21.6987 18.8866
1 49.3553 36.336 20.6893
1 34.5749 16.7651 7.4334
1 3.06467 18.7393 18.2648
1 40.9889 43.2633 2.54367
1 20.7302 28.3117 23.8538
1 29.2675 33.3372 21.0268
1 0.183284 4.77863 40.0596
1 17.1545 36.1535 36.1336
1 3.03489 29.5827 31.8672
1 34.6656 2.03235 40.007
1 7.16036 37.4778 33.3383
1 35.1544 15.8691 16.203
1 15.6809 17.2161 35.8238
1 46.4942 1.12093 19.7775
1 17.5004 39.1703 18.9275
1 6.19513 15.1766 10.3665
1 4.16641 21.635 5.10019
1 43.5518 5.066 12.367
1 29.4651 24.8509 34.6473
1 30.23 44.317 9.79858
1 13.6246 45.0773 48.4311
1 15.0788 29.2431 3.85427
1 42.9622 45.885 36.1374
1 23.2615 44.2644 4.83823
1 11.8858 13.3302 6.60351
1 47.4952 22.4657 6.54529
1 13.8651 39.3602 0.88447
1 8.98022 0.833702 26.2632
1 26.2558 19.5293 33.5375
1 3.6314 32.0598 3.92692
1 42.2454 17.9414 38.8702
1 23.79 8.19212 32.6606
1 40.7728 13.1218 17.6698
1 16.8655 32.6845 31.4056
1 46.6789 10.3763 38.6109
1 18.0388 4.33933 48.0982
1 36.3802 22.184 42.5306
1 19.7662 32.7652 34.9884
1 37.7231 40.0904 28.8941
1 32.5604 3.58641 8.15135
1 20.4303 8.33831 26.4312
1 18.261 9.31252 7.99741
1 4.22982 10.6236 49.1767
1 21.2997 11.5684 16.4172
1 4.94286 0.156903 10.9521
1 49.2344 48.5901 26.124
1 0.687979 36.7271 15.0505
1 2.77813 16.552 48.3767
1 0.540407 19.7022 28.2458
1 46.2293 19.7006 26.6696
1 5.71915 3.45717 2.50136
1 35.1824 9.3987 11.0524
1 31.1659 14.7319 24.2893
1 27.9674 6.09484 42.1713
1 20.3214 7.6189 36.6106
1 0.666051 48.3055 19.6605
1 22.4468 25.3028 34.528
1 43.9886 10.6134 36.3565
1 15.4806 10.0802 38.2919
1 25.3865 40.245 19.9546
1 44.6786 10.7798 27.9245
1 37.0249 0.66263 48.5884
1 42.5721 2.07579 28.3044
1 10.9092 46.9623 24.255
1 3.52402 10.1957 17.8531
1 7.83008 22.6374 43.2483
1 46.6058 25.6131 20.6254
1 49.6031 41.8967 35.1875
1 16.828 33.0318 19.8001
1 11.4265 4.40136 41.6228
1 38.8906 18.7779 18.0632
1 1.19354 36.7211 29.1808
1 32.3807 3.74395 37.0985
1 37.8069 10.839 15.1673
1 4.55998 32.747 23.9402
1 38.3069 27.0568 29.5511
1 46.713 21.3011 32.8647
1 7.40121 34.9596 21.9725
1 1.08846 34.4192 23.9021
1 36.3216 41.9521 27.395
1 7.99001 37.762 12.7481
1 6.63109 11.8316 47.2255
1 35.4651 3.51072 11.9565
1 39.1375 33.2617 30.5271
1 1.52251 42.4716 19.3057
1 23.5352 15.284 18.5949
1 23.5243 4.88144 37.649
1 5.67894 41.7495 30.065
1 8.21234 8.77784 16.092
1 38.6841 35.305 49.4341
1 9.25601 41.561 5.70817
1 8.91407 16.4673 33.5781
1 9.3514 16.1131 20.1231
1 2.03224 7.52374 35.0756
1 38.9776 30.782 3.63403
1 41.4651 40.7782 21.1319
1 0.731016 42.9969 29.8726
1 45.8706 32.6989 31.9638
1 27.1879 40.298 9.64383
1 31.3168 43.249 49.1631
1 22.6702 3.98063 14.2228
1 43.77 19.7595 5.8245
1 24.0565 14.9999 8.49087
1 15.2393 44.041 46.6319
1 16.9905 46.8967 14.7104
1 22.2103 38.8523 39.8981
1 33.7822 46.1295 28.4178
1 41.9354 35.7192 37.3807
1 8.27505 10.2195 23.1417
1 19.3739 30.1918 22.3433
1 12.0142 46.0233 13.2171
1 45.5659 19.6695 47.5431
1 10.4063 8.4747 1.25737
1 31.2317 26.9826 42.6033
1 38.1996 7.1444 17.3564
1 0.790721 4.34455 8.79554
1 24.9147 6.43951 20.1196
1 9.92826 31.1852 2.02206
1 7.85636 13.8647 3.46106
1 17.531 44.35 33.7792
1 7.02293 3.17041 47.9192
1 2.54524 17.5421 29.7967
1 32.9323 4.52941 42.3021
1 42.7262 46.3157 41.899
1 12.4875 28.3048 40.3561
1 29.4897 33.0023 7.69094
1 0.97299 27.8686 46.1433
1 9.24195 19.6506 2.58829
1 23.8432 7.56466 17.8558
1 18.3085 4.79133 36.8722
1 19.586 32.1213 27.6352
1 40.096 1.27468 37.1721
1 11.0966 6.73446 18.1181
1 9.87731 14.0841 22.1859
1 47.3764 47.6 0.891472
1 6.74937 30.2494 13.3399
1 5.229 20.699 29.2214
1 10.3585 30.9669 39.4696
1 34.3456 26.2814 36.6921
1 10.9105 28.7256 16.8043
1 23.0916 7.50104 11.864
1 3.79374 34.374 5.90822
1 9.86787 30.1786 24.8754
1 43.5611 14.8727 49.1791
1 13.5251 27.7708 27.8805
1 16.8432 1.16558 22.0916
1 24.829 22.9475 19.9907
1 9.50116 28.0383 30.6978
1 32.5663 44.8823 41.3107
1 32.797 7.36064 19.8433
1 37.6563 16.6472 28.9191
1 20.0541 11.0582 18.6937
1 44.6071 42.4011 49.4821
1 29.2423 22.1947 23.0407
1 4.84123 39.6843 39.009
1 11.6467 43.107 45.8958
1 5.46182 36.0421 3.20681
1 26.1371 48.8148 4.37238
1 13.1132 9.39658 10.0046
1 37.4432 6.87022 25.742
1 19.2445 15.1443 24.8976
1 27.0218 2.83075 17.5324
1 22.6647 33.7394 8.02364
1 34.3153 31.1439 46.7883
1 39.1507 42.2333 44.4961
1 19.9288 42.0436 8.86594
1 7.01379 27.4349 15.8251
1 20.5172 35.25 47.5518
1 29.9625 28.5218 8.48855
1 22.6449 34.1317 36.4259
1 8.34812 24.5354 37.5569
1 39.0161 31.6034 45.6088
1 35.2442 33.9729 26.3764
1 4.41915 40.6926 4.41982
1 13.611 29.7086 15.9599
1 25.1234 16.8655 2.58976
1 25.975 32.6131 46.1343
1 46.3812 5.55521 42.2069
1 16.2133 37.4651 20.6135
1 6.41196 23.1111 2.8379
1 29.1153 3.36336 26.2793
1 12.2174 23.6467 26.8396
1 37.5115 37.8275 25.5598
1 3.67314 25.3345 29.4707
1 14.446 17.3453 22.19
1 49.2283 9.39248 15.467
1 25.9936 4.36721 46.2601
1 27.9703 15.6319 43.4734
1 39.0395 25.7253 5.36416
1 28.2214 11.7392 42.8133
1 4.7431 20.7219 49.6102
1 29.336 34.6642 33.1619
1 30.0872 1.14999 4.97869
1 7.15223 45.235 1.22683
1 22.6787 33.0709 1.432
1 49.2322 19.9385 36.2623
1 12.9043 36.6016 14.3299
1 9.62694 45.1305 12.0632
1 27.7677 4.25545 0.782192
1 7.26754 35.8323 29.2754
1 29.4819 43.9005 14.2752
1 4.81159 25.5224 25.8198
1 29.808 10.511 25.1425
1 29.9541 12.5888 31.4458
1 48.8939 23.4853 31.3098
1 5.9783 1.40284 42.4672
1 15.3403 8.28962 30.1999
1 41.065 1.9741 22.9953
1 23.7074 10.844 8.88609
1 11.5658 36.0651 19.6373
1 13.4549 11.8958 36.673
1 34.2186 35.2004 35.455
1 15.8986 18.251 48.3675
1 7.72199 33.46 34.8359
1 41.4962 21.156 16.6595
1 20.9316 8.75728 22.6473
1 44.5259 15.9371 23.3235
1 24.9981 24.7297 31.1183
1 37.3644 5.52803 0.715502
1 8.85903 47.186 33.4599
1 26.1665 39.9776 25.5715
1 -0.000297584 1.62476 24.2488
1 1.63331 27.8175 33.9983
1 20.9453 4.78793 1.48659
1 38.6204 15.8871 9.3508
1 47.5375 16.3019 42.439
1 13.3875 31.6709 14.0525
1 10.5063 6.76135 15.3189
1 3.08277 38.494 2.86878
1 6.98545 11.7404 0.0315562
1 27.1269 2.72352 24.7744
1 45.2249 14.5598 18.9187
1 39.0072 14.5126 25.7204
1 30.8868 6.80791 28.9403
1 9.30074 25.6741 33.1887
1 0.950655 6.72055 15.9192
1 46.4886 8.79654 29.0534
1 22.6881 34.5676 29.9206
1 16.0479 49.2277 45.5812
1 16.2263 18.9747 6.57205
1 6.48155 2.52047 36.3044
1 9.51055 13.368 47.8975
1 40.6375 31.1341 49.2577
1 21.653 35.456 40.1264
1 31.6339 1.76198 2.75692
1 29.8973 17.3983 42.6697
1 14.4887 6.3439 4.09194
1 11.2365 31.0654 8.73776
1 19.1231 28.8676 7.5164
1 31.3847 5.27488 19.1227
1 2.5308 47.3818 21.6396
1 13.0493 13.0666 19.1084
1 13.9358 1.08661 34.3015
1 42.2642 45.0787 30.5583
1 4.74472 5.55112 22.6924
1 23.0651 15.9403 39.8316
1 9.35437 8.94226 10.4567
1 6.65445 6.89946 0.191532
1 49.5992 23.2137 9.71649
1 23.8621 0.0679562 43.8782
1 45.0882 48.7798 20.1486
1 17.1117 10.9194 18.742
1 1.82272 16.306 35.2325
1 2.71271 6.29857 24.4685
1 15.9606 42.4108 25.0481
1 7.70696 40.7783 48.0688
1 45.6219 49.5363 29.1162
1 0.555268 15.7458 42.8352
1 18.6913 46.272 7.09046
1 19.4938 33.3426 4.56968
1 13.2003 10.5754 29.3142
1 3.87362 42.991 24.3923
1 3.47432 3.29451 21.4958
1 32.5422 13.0744 27.4003
1 36.5466 40.2031 38.3065
1 14.3493 1.60242 9.7806
1 39.9545 34.3445 25.0627
1 2.55408 36.562 34.5874
1 21.5793 2.18654 30.3762
1 20.1264 2.96277 8.55986
1 39.2497 48.8189 38.2163
1 38.6606 23.9606 48.4616
1 13.8399 40.6665 42.2353
1 38.3226 42.3882 12.0053
1 28.4819 40.5864 12.8874
1 10.5428 43.0523 7.94031
1 42.7071 5.32489 20.5337
1 13.9364 48.185 7.40244
1 48.1719 30.2276 39.5781
1 18.2537 13.3365 13.3879
1 11.69 16.2045 36.9161
1 4.00181 46.4728 17.572
1 4.04715 42.6883 37.6402
1 13.3244 37.5469 10.0704
1 12.5605 4.11144 17.4423
1 8.70814 6.06003 19.5487
1 28.1545 6.61387 28.8233
1 25.2187 10.5047 25.1262
1 9.61017 11.6693 39.7715
1 23.5484 23.7882 1.07117
1 40.1263 21.1892 4.26823
1 28.5726 31.7703 26.0031
1 6.4105 6.96536 17.3062
1 17.8383 7.29773 25.4241
1 49.7662 8.30001 49.4013
1 31.7939 23.5966 38.2966
1 28.8528 13.5419 35.2517
1 44.3959 32.3515 37.9813
1 0.0461803 32.1232 46.8249
1 10.1012 45.253 21.9131
1 20.3604 3.92643 29.1365
1 32.7231 0.148446 23.8914
1 31.4644 4.48233 32.8321
1 19.0724 29.7341 45.2768
1 39.2683 5.53959 2.7688
1 3.40119 8.96475 5.00628
1 23.9011 13.8067 33.6375
1 38.9587 16.4366 20.8919
1 22.0613 6.00683 49.2079
1 22.6995 37.3556 25.5472
1 23.4449 26.9431 5.20186
1 37.1658 32.0793 27.423
1 34.1659 23.6596 12.9189
1 11.2244 8.81054 5.66096
1 27.622 25.8892 16.7705
1 39.5191 3.03088 39.6281
1 39.5679 30.471 12.4119
1 6.28453 11.8461 15.7478
1 18.5085 44.1384 48.6638
1 1.87292 2.21175 28.7903
1 13.3834 2.48793 6.03401
1 48.5893 12.0876 45.5243
1 12.5109 4.87381 27.8222
1 19.4466 23.2353 25.2653
1 28.1658 42.8924 35.2184
1 14.0155 0.228458 26.8205
1 0.343152 22.1306 45.989
1 47.264 31.8951 19.2041
1 47.1065 26.9669 26.6923
1 13.4422 27.6392 32.1533
1 36.5358 15.3501 45.7835
1 15.8023 27.3424 43.7761
1 29.518 23.3496 6.94813
1 28.6108 11.5373 33.4396
1 46.3801 10.1508 3.52589
1 30.9461 32.9606 48.8271
1 46.283 11.469 35.3846
1 36.045 41.3779 5.20533
1 19.3206 11.0662 42.3957
1 7.03547 2.02166 33.623
1 12.8724 39.0905 5.02951
1 26.9573 8.63856 2.96024
1 42.2138 6.8026 29.9981
1 10.3923 10.122 24.8579
1 4.42345 11.9979 4.83946
1 45.0918 41.5541 13.454
1 46.1402 13.6216 8.03448
1 48.8459 25.9514 34.5119
1 10.6696 39.1861 23.7639
1 13.6381 0.229497 13.0766
1 28.7993 7.61069 5.20865
1 30.0772 42.7281 17.8233
1 5.22006 10.4226 9.98393
1 13.8909 8.90751 21.5695
1 20.6446 21.3778 5.55989
1 35.0199 31.8335 23.0894
1 3.16817 22.5326 30.6186
1 48.6644 19.8346 6.6437
1 23.1388 13.8497 4.36065
1 30.8614 35.3403 19.5138
1 18.0683 16.3258 48.3391
1 39.7851 30.308 27.6025
1 35.4933 7.62563 0.467338
1 49.1971 34.8742 47.5723
1 8.32086 27.2419 49.542
1 41.3151 48.601 10.9645
1 48.9156 1.56424 46.1656
1 32.6655 35.4619 22.953
1 3.49031 6.01426 5.16493
1 19.6851 0.587666 0.782121
1 1.15074 26.9079 29.0393
1 46.6543 17.8094 22.527
1 19.6455 15.5248 46.1726
1 38.0112 28.28 19.6906
1 12.3759 23.8909 32.1474
1 0.301839 23.7243 3.26576
1 47.3499 15.2769 12.3575
1 4.20832 17.2546 44.2275
1 4.71185 15.8834 32.2709
1 16.2955 47.8603 48.7656
1 8.3095 37.792 42.306
1 13.1168 5.45276 6.49776
1 5.88878 9.47008 24.2942
1 38.0671 42.4628 37.8452
1 17.9512 11.6973 38.1351
1 33.3606 48.9557 7.05566
1 7.46212 49.2416 38.8271
1 5.00025 19.0786 4.36667
1 33.0191 9.49352 45.3875
1 19.0661 11.423 6.26028
1 31.2355 14.8586 32.3663
1 46.5975 12.0575 43.6867
1 14.2377 43.9751 21.0028
1 43.5406 9.59844 25.4354
1 30.7508 16.6242 9.9221
1 44.5656 16.2579 31.6557
1 22.331 17.3725 16.47
1 15.2273 14.945 41.0702
1 49.2237 32.045 5.69459
1 29.966 32.4873 12.516
1 49.5456 45.6476 1.21454
1 5.42743 21.2763 46.7643
1 41.8599 40.9288 6.82001
1 16.8142 27.3599 48.1128
1 4.94409 40.1955 16.1009
1 17.8584 46.4143 9.55011
1 6.05251 36.4257 14.5987
1 11.6347 28.0963 10.8561
1 8.88106 31.8675 17.1472
1 24.0593 20.8993 34.0315
1 24.1399 39.3577 32.6107
1 16.8194 21.2537 35.3005
1 27.0072 40.7317 2.43532
1 19.8088 45.627 14.6561
1 42.7447 15.2915 5.99211
1 6.72362 45.5953 36.3294
1 32.3821 21.539 36.6461
1 30.1913 27.2347 17.386
1 12.7597 17.4411 8.31106
1 4.53832 35.1396 47.5351
1 24.6722 16.8436 30.9288
1 2.09384 43.2611 35.4004
1 6.38586 14.3099 1.45279
1 14.592 14.4442 45.9108
1 3.06018 18.0164 3.27632
1 39.5911 5.72653 31.3631
1 49.3665 40.3065 5.15349
1 8.78245 26.9695 42.1215
1 26.2462 32.2459 33.3626
1 1.61673 25.3615 23.11
1 15.8219 43.4023 38.0572
1 14.3591 49.7221 40.9927
1 38.8461 2.13148 12.5843
1 17.2018 40.6079 26.8628
1 13.1175 13.9503 11.3343
1 17.4483 23.4498 36.831
1 44.9115 4.29495 10.255
1 29.4432 21.0976 49.5744
1 28.6584 8.71511 48.6419
1 33.2865 7.78491 42.9798
1 34.2373 49.6637 45.8437
1 10.9001 22.0674 45.5324
1 21.2171 8.62962 10.1232
1 41.1647 27.1723 1.22922
1 0.8434 4.55517 1.56662
1 43.7022 2.44051 5.8948
1 17.4964 17.3176 14.5047
1 28.2391 36.9666 48.0774
1 16.581 36.5749 23.1471
1 38.7539 34.1813 39.0412
1 26.0676 28.9746 38.8862
1 30.2102 18.5826 23.2677
1 22.5119 37.1035 13.5217
1 22.3132 8.34861 14.5253
1 37.0771 8.11445 13.751
1 2.38227 2.24019 1.63655
1 5.7896 26.5517 13.5625
1 40.8953 9.08206 8.05192
1 15.4396 25.0113 4.95236
1 23.7168 20.1445 40.0174
1 34.056 18.5353 33.7263
1 26.9649 15.5658 3.8409
1 6.77552 25.1981 42.5046
1 36.7067 14.9394 7.48632
1 37.5855 13.2073 44.5038
1 13.7041 14.211 0.154677
1 2.16237 4.79217 36.184
1 11.1019 19.1943 12.8171
1 10.7409 38.7407 26.6592
1 38.2903 27.1973 34.6059
1 2.28798 27.4234 41.9997
1 47.9324 12.326 31.3042
1 16.9647 11.6452 9.1596
1 45.3073 32.8261 24.467
1 28.0374 10.5605 18.4991
1 13.003 7.75823 34.8886
1 47.2766 29.7123 44.2047
1 48.6343 5.99579 37.4018
1 33.4781 12.3357 6.83959
1 40.3523 42.5613 36.5955
1 30.8984 23.9677 42.6714
1 44.5361 30.034 1.7795
1 49.208 15.3124 34.2074
1 18.624 4.46036 12.7794
1 39.5705 34.8099 19.3705
1 46.4594 46.9054 8.99135
1 17.6474 33.5052 44.9647
1 7.25924 22.9962 49.7124
1 14.3318 37.3174 33.3769
1 2.7849 16.73 8.86679
1 17.7798 26.6547 23.9233
1 44.7813 7.45322 33.1579
1 19.2288 21.6899 15.2609
1 21.4756 18.4563 36.6376
1 24.8702 24.9154 43.9964
1 46.5671 3.10008 40.8428
1 15.6282 45.3013 30.1923
1 24.2483 30.502 17.7915
1 2.46711 10.5064 34.5515
1 36.7507 7.94857 19.5996
1 11.9065 36.2833 45.8215
1 41.7208 24.7185 17.9181
1 17.6601 46.8662 44.4568
1 21.9989 1.62356 38.0704
1 32.5684 4.12517 16.7757
1 15.8503 12.4266 40.4144
1 6.2932 17.977 15.9156
1 5.019 21.4143 23.0472
1 21.6338 31.7942 6.01341
1 23.81 29.9036 24.0245
1 14.4806 11.9587 33.3446
1 36.6536 31.9076 19.1307
1 9.13761 30.0456 41.7168
1 24.9438 14.1751 30.5578
1 22.5381 47.2121 0.161207
1 14.5093 5.90069 18.9086
1 28.3401 7.03938 0.895298
1 47.4227 0.638587 16.7575
1 46.0589 34.9835 44.4635
1 36.8172 31.8705 30.3033
1 11.2433 48.8127 49.5533
1 24.2221 0.0839895 16.8088
1 42.719 48.6973 18.4736
1 28.4983 28.5207 13.1488
1 29.9733 32.4289 43.7618
1 41.7722 42.3254 42.6683
1 33.3958 26.6283 6.92409
1 45.8261 27.9065 19.3281
1 0.0323298 17.8507 40.2374
1 11.8155 17.5292 49.2392
1 21.1951 4.22761 47.3908
1 13.7032 13.2346 23.3929
1 7.40742 33.2053 18.8788
1 17.2725 31.9242 11.3506
1 46.3901 10.5301 48.2572
1 21.2396 30.7033 30.9208
1 5.74201 23.7455 28.6878
1 6.67743 12.8861 19.9816
1 6.55952 40.3097 32.2412
1 12.4838 40.5773 27.8089
1 8.19935 28.185 7.56303
1 48.065 33.3659 42.7407
1 36.021 7.27839 44.2567
1 12.8938 34.3742 49.7776
1 12.8341 4.60333 2.62513
1 48.0792 46.9098 14.8895
1 43.8021 3.3116 39.4736
1 38.7321 32.6571 20.8392
1 10.1049 2.78732 10.0118
1 30.2998 47.3061 19.3918
1 9.73084 39.1289 10.9853
1 3.77523 2.11934 16.4567
1 46.0932 42.7001 6.90598
1 4.80025 33.0948 17.8313
1 1.77535 16.0027 39.0399
1 22.6852 42.5451 9.53198
1 7.8744 5.77751 47.9311
1 23.9305 4.68682 8.39141
1 33.2051 3.46351 21.325
1 44.4566 39.0221 41.6431
1 40.324 32.6041 33.9851
1 42.0003 17.0544 18.0844
1 17.2668 40.9084 43.8489
1 12.1949 9.81846 44.7641
1 9.98833 5.34391 36.8025
1 4.17142 8.86513 1.56352
1 15.4458 34.771 48.5213
1 15.5145 18.9237 1.26517
1 25.1189 41.7329 39.9846
1 31.1852 10.2898 36.1452
1 6.49867 11.2375 33.9069
1 4.61203 43.7335 1.40093
1 45.1759 14.3184 28.9292
1 1.26261 45.0365 40.6627
1 7.4296 31.2858 44.5573
1 12.7507 30.7909 24.9155
1 43.9335 10.7311 18.4679
1 35.9082 11.5498 17.0949
1 4.34862 35.9865 11.8021
1 13.6025 19.1334 27.4404
1 49.6981 27.7718 22.9251
1 40.4952 31.7638 14.3339
1 24.3623 23.2711 25.7601
1 15.3785 49.1809 14.9739
1 35.5691 34.4051 23.4609
1 2.02104 48.1675 39.9159
1 36.5744 46.1224 8.49915
1 19.8673 27.5858 27.8842
1 15.8436 1.19351 38.9008
1 27.8568 29.5498 22.3297
1 0.467197 16.4827 20.467
1 12.9742 9.39782 1.52305
1 38.0319 20.3748 2.78513
1 6.31601 2.35542 12.3244
1 31.3966 23.3711 19.2839
1 12.4261 28.3446 47.7708
1 22.7868 42.4445 28.6504
1 37.6759 45.2705 26.1458
1 17.9625 33.484 25.6294
1 4.02064 4.96445 38.1661
1 13.6039 47.2026 36.9122
1 1.51794 28.9239 48.891
1 36.29 19.6418 43.7576
1 1.66146 10.3919 23.5247
1 44.1505 13.1545 37.9199
1 33.7157 43.6677 23.9245
1 45.3135 46.3981 39.363
1 41.8295 46.9718 15.2752
1 26.1211 37.3001 32.4847
1 7.29233 32.2702 21.4058
1 32.4784 10.2506 0.933895
1 29.5286 17.308 32.7885
1 33.0444 46.8046 1.42732
1 44.0701 17.8304 25.35
1 36.3644 40.123 41.0488
1 31.7538 18.9096 49.3323
1 17.1059 45.701 5.1609
1 11.2479 29.9838 12.8937
1 31.2856 14.0323 42.9802
1 41.7484 26.8708 24.0742
1 41.917 37.178 44.256
1 27.274 46.713 21.9328
1 40.7409 44.7338 34.9998
1 40.5119 40.6594 17.0982
1 5.22646 37.6999 17.3358
1 38.9402 48.4904 49.3859
1 10.179 39.0934 34.3313
1 32.1384 37.7884 44.0873
1 6.89089 2.42232 27.0915
1 34.8528 7.91217 3.10147
1 16.9578 24.6574 43.9792
1 11.9285 33.4512 47.17
1 1.81655 18.695 15.2124
1 7.32821 13.5535 39.1608
1 49.5726 13.1181 1.40071
1 40.9646 30.3317 10.1974
1 34.6365 36.3175 5.2257
1 21.8617 22.6811 37.8072
1 18.7055 7.61621 10.4811
1 31.4957 31.1925 29.0798
1 27.0228 16.6992 47.9518
1 14.6415 14.3325 36.4976
1 11.7957 48.1972 26.7417
1 3.5086 37.4253 30.815
1 6.14036 36.6391 41.3028
1 -0.0169028 25.8813 14.2405
1 23.4633 25.1568 46.3493
1 34.553 21.0051 6.01223
1 10.8888 0.0678357 17.8047
1 5.28744 3.8639 5.13817
1 44.6103 7.64974 21.825
1 27.7269 21.0864 31.4828
1 48.083 49.375 37.504
1 24.6603 44.7259 25.4471
1 34.0183 37.1514 46.0409
1 28.7041 8.85575 12.2953
1 5.20919 33.7939 15.2828
1 4.95097 16.5349 17.8193
1 34.9251 38.1811 13.8454
1 16.8458 7.83302 6.56109
1 40.8989 31.0475 21.5288
1 13.6535 0.652239 22.4675
1 45.1717 21.1885 10.1536
1 11.603 20.0453 4.40956
1 7.29102 19.4752 23.9136
1 10.922 47.8399 36.5791
1 39.529 20.7561 41.5494
1 32.9048 3.83942 10.9324
1 4.51861 35.0527 22.9031
1 17.0312 41.1893 14.9544
1 48.3099 35.9576 7.91388
1 12.0027 20.7953 41.5109
1 45.6023 20.797 39.0172
1 20.009 34.5465 28.8488
1 5.07151 41.6072 44.8976
1 47.264 33.6825 49.132
1 49.1905 26.5529 18.019
1 1.53473 18.1743 43.5601
1 34.4909 26.0805 33.8613
1 28.1102 1.29452 10.0697
1 22.5382 33.717 11.808
1 11.0512 44.9918 31.1693
1 13.6841 31.8548 9.18872
1 33.3713 25.2614 10.6852
1 11.0061 18.6274 30.6495
1 19.9369 37.6807 19.1977
1 7.98153 28.4998 37.5045
1 15.3412 39.3818 9.43212
1 44.0999 31.3084 40.6659
1 33.5522 29.7835 30.1897
1 14.7098 34.0878 8.04769
1 39.7697 37.858 40.247
1 35.6523 46.7505 2.45555
1 6.4299 3.97052 42.3578
1 13.7541 47.7645 48.2074
1 45.9856 49.4706 9.14371
1 30.2654 3.91131 2.07685
1 0.0905007 0.183189 3.83704
1 27.5929 45.1207 3.65559
1 25.035 46.2596 36.1855
1 36.5172 17.8139 19.5392
1 5.45921 13.387 7.01452
1 0.125507 8.48804 38.0829
1 13.2487 5.4313 45.7497
1 3.48218 27.0887 38.3785
1 6.85082 28.8432 43.7572
1 43.3662 20.1229 43.3624
1 39.3273 38.2733 27.6751
1 14.712 35.8935 46.4246
1 42.1684 44.592 17.5494
1 14.4952 26.4402 40.9645
1 15.2179 47.1551 9.6886
1 0.502613 28.419 19.9297
1 33.3237 4.25922 34.5413
1 32.7395 12.4701 35.7833
1 35.5008 39.6064 34.5321
1 15.1486 11.8536 46.4308
1 16.7152 29.7466 49.5532
1 5.27392 27.9198 5.1381
1 8.04425 5.26963 12.4163
1 36.2456 44.9035 22.0013
1 42.1118 46.9042 22.1289
1 29.4433 1.55574 18.7399
1 8.79198 37.3427 4.58045
1 45.1436 45.5322 34.5228
1 3.45309 31.2841 19.6479
1 10.0616 10.633 3.40245
1 28.0068 29.214 30.5341
1 35.0735 12.929 26.2215
1 16.6904 14.762 0.693475
1 16.0534 12.3387 14.981
1 2.7493 9.60533 21.2166
1 14.4793 34.126 39.3534
1 14.9288 33.7968 17.8444
1 10.8377 36.9538 0.50644
1 49.3975 28.3145 32.2749
1 37.8722 23.2721 10.5813
1 46.4278 27.7668 4.63521
1 28.2925 11.9876 13.9678
1 4.29271 2.0973 37.4514
1 20.2459 32.3184 20.8672
1 28.0825 41.8548 24.5034
1 30.813 49.2563 6.9946
1 5.15089 38.5457 9.11928
1 48.3072 9.61855 12.5853
1 0.868548 6.16011 10.6817
1 35.6235 2.25312 30.1559
1 33.7566 42.5576 45.5459
1 19.5373 35.903 5.75129
1 10.6912 35.6449 15.2604
1 43.9933 45.2335 20.9742
1 43.6868 46.782 26.198
1 16.0732 36.3938 42.8053
1 29.3689 44.2058 24.602
1 20.5257 22.7907 42.6354
1 38.5915 43.1448 24.4217
1 13.2257 14.85 8.40208
1 38.4687 17.1866 45.6979
1 16.243 44.657 13.06
1 34.4863 24.6034 8.61024
1 26.1533 11.7041 11.9638
1 25.743 3.4155 29.3325
1 44.4473 21.5793 19.8049
1 46.0701 7.75468 14.2494
1 27.1247 17.3943 45.2795
1 43.4646 31.0737 10.6931
1 37.7688 24.7674 20.0308
1 32.6315 24.3877 0.558848
1 10.8851 42.7916 11.3703
1 48.9731 27.1782 5.51274
1 23.8624 35.6936 20.5441
1 22.7557 19.3933 22.35
1 32.7046 30.873 8.04788
1 1.17385 4.58042 6.16979
1 22.7256 0.14429 41.2001
1 38.1031 0.295413 19.3705
1 45.4335 26.3779 15.7663
1 11.1529 26.4343 43.7731
1 17.881 7.05084 16.1292
1 11.8761 39.5663 48.7042
1 23.4347 45.3091 16.619
1 36.2029 31.2476 48.996
1 4.00771 49.7162 21.8945
1 48.334 27.2152 39.316
1 14.3734 30.1891 43.7162
1 29.1031 20.167 25.2915
1 46.1847 2.18807 35.8566
1 5.55587 46.5101 33.6954
1 0.802536 21.8512 37.893
1 38.2648 35.2481 2.88118
1 8.67588 22.7106 13.36
1 10.5307 41.4095 2.26592
1 19.551 27.5132 1.8442
1 16.5159 22.168 28.5016
1 3.07971 20.3434 37.3227
1 16.6381 8.17892 12.2006
1 36.3865 41.4654 16.2126
1 22.3068 1.16427 18.644
1 0.638337 8.0012 32.5519
1 13.4075 21.8362 9.88679
1 40.55 27.8045 9.38993
1 10.3631 37.7295 8.69593
1 27.5223 32.0642 15.2941
1 10.0338 17.3064 11.4587
1 21.4252 15.7687 4.76518
1 6.44762 36.1497 35.4041
1 41.4604 28.9616 16.02
1 46.3529 31.1606 27.5095
1 47.5261 38.3982 12.1622
1 38.8924 47.1646 7.76516
1 22.9453 2.34107 35.0543
1 11.0713 11.0347 7.98246
1 22.7696 38.8768 35.6551
1 20.9438 43.9275 17.876
1 24.1338 48.0531 22.5375
1 11.4562 10.3721 35.021
1 21.8379 1.91645 0.714755
1 5.07979 41.2993 8.72284
1 18.6332 35.4376 23.9406
1 11.0288 48.4178 13.1885
1 16.963 16.6919 29.326
1 23.4369 22.6657 30.3291
1 36.4619 37.2179 3.40186
1 45.9938 27.8771 8.85109
1 33.8025 28.5738 15.617
1 18.8854 2.72256 45.8043
1 48.5836 26.1231 47.002
1 48.9928 5.76055 46.7663
1 10.0844 34.3152 11.3866
1 46.7992 28.6221 33.8147
1 44.6571 35.0513 38.331
1 26.4667 32.677 28.4035
1 41.2192 39.0575 26.1509
1 48.9872 13.5102 15.1514
1 35.4657 48.1396 38.0047
1 24.1888 11.8834 16.419
1 44.7251 5.58987 38.4261
1 4.22904 25.7293 43.5077
1 12.7441 21.6648 24.1159
1 3.92288 24.8332 14.0462
1 6.95853 6.73366 4.51632
1 36.8717 0.672966 24.1786
1 33.8476 39.7193 23.3247
1 48.0411 7.9353 24.9996
1 3.45024 27.6704 24.139
1 1.53704 26.6247 16.3778
1 7.1047 6.22192 45.3231
1 36.6955 29.0414 30.9491
1 31.04 20.9719 12.7188
1 19.0257 38.5051 9.42294
1 30.6236 34.2263 24.2033
1 17.7045 21.414 26.2977
1 37.04 23.7752 15.5633
1 38.8812 11.7894 10.7065
1 43.5264 34.4245 30.8378
1 25.2935 30.3884 15.0644
1 49.1577 19.5545 25.842
1 46.735 47.3273 27.0749
1 1.31662 16.0805 16.2627
1 41.4317 45.6987 47.4708
1 6.49233 15.6436 34.4269
1 41.6375 18.699 26.7266
1 30.3968 46.6172 5.86039
1 28.7747 28.0637 27.9023
1 8.33957 43.2806 16.766
1 42.6888 5.74754 36.5567
1 20.8356 48.8498 43.4805
1 33.8284 14.5111 32.6677
1 40.1993 0.04535 43.7861
1 40.2837 9.04666 33.2112
1 21.3131 23.7825 29.0046
1 14.8315 39.8721 21.5859
1 27.2842 25.3702 20.8284
1 30.2513 38.9202 27.9579
1 47.5827 38.7666 24.3681
1 38.904 25.1168 17.4177
1 14.6327 25.2963 26.7164
1 43.2947 30.4101 28.77
1 4.13173 27.4066 35.5413
1 0.0269899 31.1665 28.757
1 6.68126 49.623 18.5923
1 33.365 4.55717 26.9604
1 40.8399 34.371 44.1901
1 40.5767 45.0707 8.60476
1 8.08115 27.6323 46.8096
1 31.5564 0.449013 32.7565
1 38.311 38.1639 6.4665
1 21.4474 44.6618 21.0111
1 17.7257 47.7038 27.1378
1 30.2248 46.7694 42.3266
1 12.1975 22.2695 17.0138
1 6.85499 24.8723 47.224
1 43.2471 9.08974 45.9987
1 36.0748 36.7747 21.6763
1 45.7845 11.541 32.7817
1 17.2059 48.6494 30.9607
1 19.4772 17.9121 18.9087
1 34.3993 13.4775 15.8959
1 8.16267 31.8223 30.8071
1 18.5346 20.7215 7.18397
1 10.1518 28.9942 20.3586
1 32.8848 41.426 39.1848
1 42.4852 11.6566 4.13874
1 11.7446 48.9836 41.6237
1 16.1616 14.3952 16.7262
1 44.6425 45.2285 31.8611
1 28.7743 31.8955 10.137
1 0.721514 19.8912 4.09963
1 18.2782 6.78782 4.4567
1 13.2274 30.5193 31.3003
1 6.0315 41.7484 20.1029
1 5.15866 14.1476 23.8941
1 11.4261 32.7942 21.9683
1 6.33422 41.1536 40.6268
1 17.2519 47.9895 36.0054
1 1.06437 13.5717 11.0612
1 3.88452 21.8402 25.6523
1 44.0963 22.4578 12.3443
1 32.3063 37.1261 48.1806
1 1.72117 47.444 48.3722
1 15.8857 29.8171 31.4871
1 48.3752 27.1 12.7816
1 33.1008 44.4277 34.4648
1 42.5317 22.4685 0.381411
1 10.9213 46.8496 16.932
1 10.3898 8.19087 43.7926
1 11.4605 42.7555 35.2484
1 9.18812 35.2303 9.23739
1 10.2889 25.0209 24.7996
1 41.6965 36.0048 12.5545
1 17.404 5.60768 30.0194
1 4.65266 45.9489 29.5362
1 39.8776 31.2153 17.5318
1 8.84615 1.64936 11.8454
1 9.42657 4.29398 14.7577
1 31.9306 9.48612 28.9797
1 43.8223 3.65219 35.0312
1 34.7529 21.7623 35.4628
1 46.215 40.1884 19.844
1 28.8734 23.505 44.3016
1 7.87573 38.3201 29.918
1 43.9717 1.22367 37.5108
1 4.31296 0.922719 44.3968
1 48.2872 43.1073 25.7814
1 48.7187 1.99474 28.9068
1 11.1831 44.5233 27.044
1 24.8502 8.24544 35.177
1 44.3489 41.7553 22.1118
1 5.3427 28.5658 46.0744
1 7.28735 36.0803 18.2089
1 4.56252 0.727254 19.5355
1 15.6578 47.1132 40.5925
1 43.2372 27.0807 16.9856
1 30.8719 48.35 22.393
1 48.0777 36.2081 24.9137
1 35.4401 0.485284 20.3102
1 14.3857 36.1533 18.635
1 45.2271 37.7154 48.4489
1 27.5968 6.55377 37.5503
1 8.13237 18.2225 21.4489
1 19.3729 34.2052 17.0796
1 46.2201 39.3491 45.7139
1 44.5096 2.38764 29.6202
1 34.3853 30.0814 34.9875
1 14.2384 2.05203 24.7728
1 35.5139 29.1626 37.3113
1 17.8798 17.3343 37.3727
1 8.22774 18.1666 31.6
1 4.3563 32.7049 38.8993
1 24.5282 37.61 39.6448
1 49.3063 12.7518 35.4683
1 1.09257 2.30708 33.5739
1 22.7499 38.7913 46.8363
1 39.7738 41.3301 34.1872
1 29.1536 21.8049 2.45053
1 21.2287 10.6999 30.2757
1 31.5072 19.4868 29.9727
1 23.9533 36.8376 45.4701
1 2.5248 27.0518 1.03152
1 40.8728 36.7868 9.87661
1 49.7024 18.1391 32.3628
1 13.8826 4.69243 36.2096
1 8.89628 5.13882 9.67525
1 19.7102 37.0441 38.592
1 42.834 36.7807 8.03876
1 26.0176 40.7023 43.7749
1 17.3401 22.969 11.4576
1 44.6867 38.2128 21.611
1 0.767571 16.4497 1.87678
1 27.376 22.8335 11.5164
1 16.8744 24.8059 46.5553
1 35.3325 8.13952 46.8954
1 6.34234 41.9645 2.64188
1 11.6345 25.6349 7.00465
1 29.6885 9.79811 44.8549
1 17.617 29.3517 27.6809
1 0.143972 49.4839 6.50645
1 9.40747 21.7904 29.7551
1 7.66549 42.8263 35.0946
1 4.0164 4.25506 18.7141
1 11.2793 7.61239 25.7168
1 47.6689 1.2532 7.19144
1 3.49804 25.7657 32.1903
1 8.10766 25.1049 17.1251
1 16.8165 17.5436 33.4953
1 20.4898 41.9755 32.016