4096
 Atoms. Timestep: 1000
1 5.59714 30.9633 16.8468
1 29.1981 18.8868 10.8577
1 37.3896 48.7905 29.5405
1 23.3446 42.0093 11.0231
1 46.1489 12.5813 24.0724
1 15.6489 49.2186 38.1844
1 26.4037 37.1257 4.79159
1 36.0942 43.4075 15.6003
1 1.42616 47.1945 37.7835
1 42.0043 0.14987 24.8527
1 26.3564 15.4486 5.43614
1 40.3433 46.1638 35.2963
1 13.0875 -0.0351044 3.22757
1 4.21528 17.14 27.4709
1 33.2895 28.5202 6.49479
1 25.4125 6.83299 15.3167
1 37.0813 6.28715 42.4599
1 4.69642 23.5633 4.99714
1 14.4915 13.0997 18.4541
1 7.29609 21.4633 7.65663
1 41.2732 11.9179 9.01177
1 14.815 25.9214 14.3123
1 4.92384 36.0459 39.4048
1 47.4659 18.3509 22.9379
1 15.1476 11.5603 41.8874
1 48.8366 32.8772 15.1521
1 4.52547 8.91833 18.5434
1 12.3677 14.8865 22.3685
1 8.4242 11.025 32.4767
1 3.18352 46.4737 47.6793
1 30.9858 41.3004 43.8748
1 7.81983 4.18793 13.512
1 34.2448 1.85212 7.80455
1 6.52833 26.644 15.2263
1 27.0777 47.1206 43.4332
1 8.82702 43.005 20.3017
1 12.6568 14.7993 5.88088
1 22.5671 28.0848 38.9522
1 3.07038 33.3717 9.29437
1 35.9958 11.8444 17.2834
1 31.8284 38.9418 29.4225
1 37.3578 30.0766 22.2782
1 5.74656 40.5628 14.3129
1 38.9785 37.439 44.9908
1 5.93696 5.77784 12.7379
1 16.108 28.2844 38.2058
1 39.7528 26.5443 32.3492
1 5.13804 33.4472 13.3793
1 4.2214 0.38658 23.7905
1 17.6951 35.8127 11.5088
1 12.4865 3.0416 24.1452
1 29.5567 14.2156 46.6999
1 12.0165 15.9602 35.7722
1 10.1487 25.9989 44.7596
1 39.0188 21.3258 1.93186
1 35.069 24.3881 28.8434
1 27.4692 18.8217 16.8748
1 45.9069 47.0603 38.2697
1 34.7129 1.74494 49.4862
1 19.0105 24.611 11.6067
1 31.421 31.2098 33.4423
1 10.8174 43.006 36.1213
1 46.67 43.5992 1.64332
1 11.1526 15.4214 46.1956
1 41.6624 47.7907 7.62974
1 5.75298 1.16634 17.5684
1 39.1796 7.81062 45.4449
1 40.1576 8.30204 18.28
1 20.8794 20.2124 41.0923
1 41.2228 19.676 9.02236
1 28.5539 2.15513 29.7494
1 27.0148 26.1805 26.4244
1 16.4841 3.75314 25.997
1 32.3828 35.3952 0.903739
1 27.0683 2.51578 23.6875
1 11.4199 3.58715 31.9484
1 41.6176 30.0861 6.10307
1 20.3538 34.6986 23.1355
1 26.1603 20.9938 18.3465
1 1.5975 25.7143 6.90277
1 36.9536 7.99295 47.4127
1 31.7301 4.63915 31.5816
1 14.1244 5.60621 6.97527
1 0.340592 47.314 14.7113
1 30.4741 14.6126 12.8347
1 22.5201 47.7197 39.3772
1 20.2684 42.396 14.3295
1 8.82935 38.3141 3.94331
1 1.58262 17.3005 13.3739
1 40.1264 40.6224 33.8589
1 25.5377 4.75816 28.6049
1 8.85021 36.8387 11.3938
1 37.3514 5.48781 0.891618
1 33.8746 4.7946 17.136
1 16.2563 10.7943 24.7276
1 46.6967 11.942 16.9321
1 19.3172 2.87247 36.5787
1 13.8469 43.9806 46.5957
1 18.4999 4.52331 2.45747
1 8.58223 36.5038 41.2087
1 32.813 21.502 29.6018
1 22.2873 17.2836 0.80773
1 21.2282 25.9306 6.29621
1 16.8129 32.8211 19.1655
1 7.53488 2.27483 15.8175
1 40.353 32.5644 20.3476
1 45.3719 18.6157 9.07003
1 7.94 5.47955 5.96669
1 35.9653 10.7289 44.3178
1 10.4628 44.1857 45.0698
1 33.7586 40.7871 20.5542
1 19.0989 40.8621 22.2367
1 27.4889 30.9814 30.7535
1 2.706 35.6773 43.6036
1 29.8619 24.7311 9.15378
1 28.0283 23.4588 7.26302
1 22.4978 24.6342 40.469
1 41.4315 1.90973 32.799
1 47.3581 24.2618 28.34
1 20.4956 47.4541 12.6006
1 12.5489 27.0607 1.01363
1 34.724 10.4199 15.3766
1 42.0448 13.5232 38.1324
1 20.7891 35.5099 3.87349
1 14.0687 2.62668 32.1419
1 42.5769 20.9253 22.9814
1 34.669 37.3064 33.0861
1 49.2001 16.9579 11.9093
1 29.57 2.84849 40.444
1 41.8071 8.08998 2.01019
1 14.6795 38.0583 22.3747
1 38.5305 24.6205 29.1272
1 15.8153 4.95889 47.9514
1 19.6014 39.7247 11.1395
1 2.55909 7.96911 31.1943
1 45.4292 35.1958 10.9083
1 3.46933 18.684 7.12591
1 22.3678 41.1498 23.0591
1 39.6906 5.59498 35.1426
1 1.16675 36.1598 18.6707
1 22.9732 13.468 40.4492
1 31.8071 31.1228 29.0002
1 21.077 12.1747 46.6042
1 30.9611 47.3096 10.6641
1 0.347844 29.0927 21.3618
1 2.56638 43.2017 18.5005
1 2.78339 12.7111 6.36091
1 42.0372 45.4044 42.4537
1 15.0546 20.1866 45.2385
1 46.7338 28.4369 6.62728
1 14.5561 20.1289 1.68283
1 37.4161 48.8769 17.6711
1 13.5538 20.2809 25.8101
1 4.04994 45.7263 29.6846
1 5.20706 26.7588 19.0483
1 48.909 0.0216216 9.70215
1 36.75 7.09317 33.7922
1 18.8159 5.29252 23.3021
1 34.1116 0.778075 3.19845
1 38.9255 13.6783 1.24191
1 31.7656 2.52082 47.7222
1 16.8014 5.59664 3.84749
1 47.4173 14.9003 34.0423
1 30.5209 14.6573 8.64929
1 35.1787 6.62026 10.3931
1 49.4335 48.0027 7.80518
1 33.2513 13.7352 16.297
1 41.8824 30.8834 22.3503
1 35.1935 39.7496 10.4423
1 20.3245 13.8199 48.7439
1 32.9221 7.4126 23.3034
1 35.0869 33.4102 41.5935
1 9.84901 6.80226 26.47
1 28.4984 26.6666 41.9999
1 32.7988 37.951 15.2972
1 22.6156 40.5961 1.51761
1 8.4094 7.96979 3.87063
1 26.5012 48.4729 30.7973
1 20.2316 27.0535 30.7514
1 10.5414 34.234 37.7746
1 46.6734 20.9519 24.8844
1 11.9528 7.01955 3.8125
1 35.2456 42.5194 30.2402
1 10.0782 27.4225 49.553
1 12.3939 4.32366 39.9915
1 31.0114 20.513 34.9929
1 24.298 12.909 35.2975
1 8.3201 31.4711 16.0399
1 30.2036 46.1857 37.7786
1 10.0356 1.44665 6.44594
1 2.13257 33.7482 38.9589
1 17.8327 34.5849 39.1671
1 33.1113 27.4988 43.5432
1 8.7289 45.6959 1.6289
1 49.3254 8.8401 20.8329
1 25.7534 1.8996 43.3357
1 48.1548 4.24564 9.69355
1 35.0066 23.4094 14.3385
1 34.5141 20.1073 24.6873
1 1.78586 18.519 24.7967
1 19.284 12.7791 23.8017
1 17.0551 11.4327 5.48586
1 5.88719 15.1485 16.3052
1 47.9035 12.6724 21.6407
1 43.9886 8.48689 45.6607
1 13.2393 43.9807 14.6904
1 18.2892 15.9278 8.48362
1 40.295 34.6314 10.8692
1 24.4659 0.0959629 11.7258
1 28.167 29.5815 26.1191
1 38.6209 44.1765 27.1766
1 40.1243 46.2876 22.8182
1 37.0317 19.7951 38.592
1 6.12287 42.7915 48.9949
1 17.7067 38.1547 14.7434
1 0.653847 6.62552 22.3812
1 13.1007 31.1138 28.12
1 27.4242 35.3036 22.5723
1 4.65115 10.8816 5.6112
1 47.5047 7.74675 3.56643
1 22.6167 44.1984 17.4067
1 10.4583 38.3871 1.7778
1 31.6723 10.4074 0.230779
1 15.9556 9.54317 43.8959
1 27.6517 31.644 15.7141
1 20.6491 20.4348 10.8128
1 31.2644 23.7363 28.9729
1 49.1817 14.7017 18.2779
1 18.8143 13.0645 3.93649
1 23.8646 41.4002 48.9786
1 22.2675 27.5059 8.31487
1 26.285 40.8889 9.39848
1 23.3467 29.2962 14.5516
1 24.0317 7.46893 22.1536
1 33.1892 14.1974 41.7823
1 31.3877 36.7094 18.7982
1 8.95136 18.4485 33.6062
1 1.80937 7.61659 6.8476
1 49.4087 20.0947 4.70302
1 45.3236 29.12 42.6504
1 35.5054 18.5163 14.0696
1 19.6369 39.8565 40.0611
1 30.0026 23.6576 31.4519
1 47.9637 11.8899 12.6419
1 14.9007 41.7697 47.0364
1 5.7852 14.7803 22.6456
1 23.4796 34.7454 22.9001
1 18.0136 34 43.747
1 34.911 3.82435 5.88557
1 20.2384 5.42977 20.6986
1 42.4153 40.7655 49.5308
1 20.0641 20.9541 46.3104
1 36.1254 46.195 18.8126
1 25.4881 16.7771 41.2023
1 7.68143 13.6448 18.8992
1 12.4026 40.2091 49.3408
1 42.2012 15.7513 23.7552
1 47.1331 10.8532 10.0528
1 42.5242 26.158 44.0825
1 48.4307 45.7598 41.8043
1 20.049 13.425 19.4193
1 13.5207 16.0819 2.93586
1 36.3643 47.6245 35.5361
1 46.5682 12.204 42.9173
1 44.0188 48.8084 12.8489
1 4.55625 49.2574 19.5176
1 23.8724 18.9545 11.4766
1 22.7347 38.3071 42.5653
1 15.9361 45.2501 10.1231
1 44.3807 30.3102 33.4706
1 10.9591 40.1843 24.7065
1 36.2094 18.4959 25.8107
1 45.3634 40.7093 7.23656
1 10.325 16.367 9.33943
1 15.9981 30.567 2.25619
1 0.921076 27.987 5.63437
1 1.57242 39.1515 34.4851
1 31.5684 19.5851 38.9378
1 35.8843 49.435 42.7028
1 0.64791 46.8896 43.3738
1 20.5356 9.20578 46.7839
1 15.803 20.6747 13.6386
1 47.3773 4.11327 43.7092
1 12.7537 21.1236 28.5243
1 17.9319 2.30811 11.7775
1 14.1327 19.753 11.4654
1 11.2496 17.0378 1.78397
1 47.4231 39.5297 27.5407
1 3.50988 30.5006 20.3633
1 29.6865 25.9138 25.777
1 40.2062 20.111 41.3941
1 1.06016 24.6484 45.0753
1 41.9734 24.0181 36.1219
1 7.4684 41.7129 42.3385
1 39.952 13.7238 42.5259
1 35.5681 30.0874 4.89826
1 42.3389 13.2023 11.5888
1 31.6847 25.8932 41.6681
1 42.605 19.7847 27.1962
1 23.5055 6.29068 40.1117
1 4.28742 37.3111 11.8702
1 14.2555 33.3618 9.85547
1 29.6496 42.305 17.1884
1 24.1102 9.73283 24.0911
1 0.368077 1.12447 41.1243
1 37.1867 20.5136 8.58923
1 9.8312 3.04826 20.4742
1 44.6199 7.67663 16.865
1 6.83324 8.31402 13.8529
1 14.802 28.8042 40.4237
1 10.1216 34.4644 29.8403
1 39.9168 15.4464 49.0105
1 5.7687 45.1498 37.8807
1 42.3112 47.2509 10.3886
1 44.5467 30.3611 22.5959
1 43.3483 33.8794 43.5732
1 32.8529 4.5217 46.23
1 2.68335 15.5877 9.84462
1 37.3105 13.1263 40.0024
1 18.9741 1.43718 28.8383
1 47.47 18.9554 10.8107
1 32.2295 24.3947 4.99347
1 42.2948 28.9501 37.9423
1 10.0216 42.0554 29.6061
1 9.40086 49.0387 29.7114
1 1.71707 30.2497 40.2547
1 4.6054 36.716 35.2622
1 0.792602 16.2373 41.0642
1 41.2607 15.911 11.4689
1 48.0341 5.17296 0.565301
1 33.4216 31.9656 23.0742
1 21.0785 10.6144 10.2761
1 14.8428 39.296 24.7411
1 30.9202 47.6488 29.5877
1 41.7709 16.8253 9.00193
1 30.8635 41.6664 10.0796
1 42.2742 36.6771 32.731
1 46.532 0.869453 46.7614
1 2.24717 41.0211 32.625
1 4.57026 5.22541 35.7848
1 12.5621 49.8119 25.8927
1 44.0128 22.6672 35.2676
1 3.37442 25.3724 44.0264
1 44.9662 4.8128 36.1084
1 37.8474 14.5253 37.7027
1 8.93521 15.7806 12.9218
1 0.146504 10.2585 25.2061
1 45.2487 7.91275 39.0742
1 30.722 28.8767 36.0401
1 33.309 17.5666 5.02776
1 18.369 6.65713 7.37326
1 37.537 18.2403 4.503
1 48.7165 31.7579 9.06425
1 20.4942 22.6145 44.3176
1 4.03894 30.376 38.9737
1 42.6043 26.7716 30.2078
1 3.47933 12.2307 33.8132
1 9.30602 6.45079 9.47703
1 2.83452 7.31074 24.0864
1 20.9685 1.45398 21.7297
1 15.6928 21.8593 16.1354
1 49.5518 37.9598 31.1825
1 22.5078 5.32156 49.3991
1 16.8626 25.7082 48.6981
1 46.7048 38.6648 22.0871
1 18.356 27.0356 38.938
1 15.2864 5.47922 9.54221
1 31.4689 13.9792 22.6295
1 15.6484 14.9931 16.9462
1 3.8978 16.3222 30.2496
1 46.4614 48.7691 16.3255
1 38.8775 12.0316 47.151
1 12.7842 3.41413 15.3704
1 28.3514 12.723 44.8303
1 48.8962 35.9584 37.8659
1 37.8804 38.285 21.5176
1 7.03713 35.2806 9.92298
1 34.8175 40.1021 0.157462
1 13.4993 14.2319 8.3341
1 11.3947 19.1916 43.8428
1 10.6027 13.5936 30.1926
1 2.21938 43.4782 42.8114
1 0.725755 36.5311 33.536
1 49.3201 47.3139 11.5159
1 33.3277 45.3143 47.6811
1 8.42956 45.0054 39.4796
1 19.1212 20.6074 6.82585
1 35.5711 13.3167 27.6842
1 15.9982 11.8341 35.128
1 32.406 43.7854 12.3451
1 9.75024 15.6143 48.8362
1 12.1128 13.8165 16.1224
1 6.0483 27.3477 25.1873
1 42.9633 27.4532 27.9746
1 1.72093 0.974667 43.6082
1 22.7455 7.53594 32.0997
1 21.0861 35.4313 28.7672
1 19.8259 25.5765 2.85158
1 47.3438 17.0256 2.14296
1 41.7893 9.7006 40.9751
1 39.941 33.9587 47.0622
1 8.67662 14.0452 27.7253
1 27.1518 3.82447 19.8641
1 19.0931 28.3164 0.547595
1 5.36842 44.4698 3.93693
1 12.2276 26.9588 38.1893
1 33.7865 12.4995 25.5161
1 39.1793 40.3771 1.88892
1 14.897 20.2619 21.7493
1 20.996 23.2281 34.28
1 19.7846 30.2052 8.93163
1 4.07639 0.729343 41.7444
1 18.38 43.4324 12.5175
1 11.9643 45.4554 37.3515
1 35.5745 49.2689 23.6269
1 16.7554 2.5023 36.8658
1 32.2534 35.1622 26.8448
1 15.2219 24.65 45.7105
1 4.13649 39.8097 2.65922
1 3.36602 12.8589 2.13143
1 10.1655 49.3898 21.2636
1 33.5467 3.51785 41.3762
1 25.335 16.3826 27.9889
1 3.82867 4.75919 31.242
1 24.2307 26.1474 23.2024
1 26.6163 2.10414 -0.210963
1 11.9941 12.8383 45.7065
1 13.623 32.8932 32.3845
1 9.4323 42.1905 23.5601
1 48.5826 21.2953 22.5844
1 25.5709 8.9235 26.1835
1 34.547 1.98265 28.8722
1 28.5491 46.727 35.3205
1 39.5552 34.2376 2.66274
1 38.4824 18.2912 13.5648
1 12.9987 2.14163 49.5742
1 20.1198 23.3991 27.9485
1 35.4887 34.1222 23.7882
1 31.8836 1.62643 32.579
1 14.3227 21.929 23.8266
1 3.63186 40.9968 28.7614
1 36.0792 10.4908 8.6132
1 46.1805 8.21068 0.997758
1 26.961 10.8222 46.4289
1 0.131501 39.8355 38.8285
1 35.1696 18.9237 28.5
1 1.39098 30.4668 23.9023
1 7.02599 30.1548 9.29573
1 20.2954 8.35377 3.16727
1 31.2607 29.3244 16.1154
1 41.7544 0.952445 18.4284
1 25.264 40.0748 35.9689
1 11.0773 34.2657 27.1799
1 14.5939 12.7857 37.4931
1 8.5525 39.6102 26.5345
1 29.9768 11.624 19.7829
1 19.3897 33.6885 16.0371
1 15.5901 8.21595 17.2607
1 6.6428 10.1278 9.74751
1 34.8733 26.9978 25.0746
1 44.8935 37.661 39.1978
1 2.40335 22.0342 34.0059
1 6.36105 15.7082 7.56848
1 8.56736 3.13714 35.1702
1 23.1176 14.581 15.5549
1 35.5383 0.656463 30.8786
1 23.2018 17.9301 22.8108
1 0.14792 47.8052 4.80073
1 18.7881 46.7457 5.66356
1 45.6598 34.2787 48.8985
1 37.9364 33.1648 24.6032
1 26.5441 40.7528 48.4889
1 8.47561 31.4079 2.39764
1 24.804 23.3471 49.1618
1 19.1899 17.2664 24.1471
1 43.0733 14.4734 2.55141
1 12.4875 27.1598 13.9006
1 43.0884 3.93773 32.163
1 2.96675 45.7575 17.6574
1 2.2578 6.79814 36.7675
1 38.3989 10.0501 1.0512
1 46.7661 20.5195 13.0075
1 32.1542 12.8937 14.3268
1 7.23131 0.757742 40.3801
1 1.18671 4.09627 30.9715
1 21.5286 32.4417 38.8743
1 44.9876 39.3461 26.5788
1 16.3061 8.89875 47.6758
1 30.5081 45.9665 24.8639
1 44.9344 30.3448 38.1614
1 10.3708 32.3873 23.9716
1 15.0284 16.1284 33.4679
1 9.22738 35.0824 13.5947
1 24.2225 5.12049 46.9932
1 17.8889 30.2746 44.2228
1 14.3737 28.7886 27.3932
1 13.5138 49.4269 36.0358
1 2.92924 42.5844 38.8482
1 49.7286 9.6106 33.797
1 36.7834 46.4361 45.6353
1 28.178 1.74456 27.184
1 5.16327 35.0971 15.2896
1 12.1386 11.9126 8.69494
1 17.6592 42.6776 36.6996
1 29.5888 38.995 19.2852
1 3.83691 32.2017 46.9539
1 1.10564 33.4228 49.4872
1 1.22979 1.77199 0.509664
1 13.8132 44.2506 43.9124
1 16.921 37.2945 28.1649
1 17.0021 44.399 17.5222
1 19.496 1.94215 33.8789
1 1.19743 15.2732 45.847
1 9.61406 42.7811 33.867
1 44.8485 13.316 31.4142
1 0.849434 8.68466 45.2929
1 23.3291 25.2467 37.7285
1 13.354 44.9411 32.0873
1 47.9169 6.2816 41.8636
1 1.7705 4.40615 0.223065
1 42.5703 26.2561 2.66351
1 21.069 11.0213 20.701
1 35.385 24.5653 19.1113
1 19.1848 22.3462 42.0339
1 4.59628 1.94493 31.4474
1 37.3113 38.6202 7.26684
1 24.0286 34.8055 6.53653
1 43.8507 15.704 30.0899
1 46.473 12.5502 38.9429
1 35.6268 17.4707 11.0886
1 37.7836 41.8767 28.2491
1 25.0245 32.1787 49.2227
1 33.7655 30.2544 34.4215
1 18.7099 44.029 41.3409
1 40.8716 22.8847 10.1442
1 38.7182 41.1926 7.62827
1 34.0006 6.47616 44.2464
1 49.233 39.9044 36.4146
1 28.8486 19.9505 21.6725
1 11.2165 3.17469 29.2668
1 41.0348 31.4273 37.6098
1 1.63988 6.00647 39.9519
1 8.38949 45.8709 21.1093
1 32.6375 48.17 6.79181
1 7.2962 5.66544 29.5557
1 24.2267 32.7321 30.1319
1 35.5525 26.8404 4.75576
1 0.745279 12.4588 34.1743
1 0.507566 13.5105 25.4849
1 7.7906 42.0808 26.0063
1 40.1016 17.7129 30.4563
1 26.0654 2.63267 26.0246
1 4.1013 25.8312 47.7304
1 6.69618 26.4274 11.5478
1 11.3061 44.3361 21.9139
1 7.98548 48.2381 22.9083
1 37.0002 0.38548 9.45826
1 4.40228 8.39988 7.17825
1 4.46239 33.2397 5.8841
1 9.92065 4.22253 43.0619
1 37.5468 42.4984 3.34428
1 47.3413 14.9159 49.254
1 39.0157 24.3408 41.518
1 32.4853 23.2008 23.8825
1 37.6703 30.4088 17.5579
1 5.49861 31.597 49.0617
1 45.6305 31.8605 14.1459
1 24.1017 46.2145 41.2034
1 1.05093 0.866662 21.8251
1 32.1712 16.3675 35.728
1 43.3527 6.1662 24.1009
1 25.7506 12.7145 41.4511
1 14.9214 0.505377 31.1258
1 10.9719 22.1962 21.271
1 1.89897 3.52493 25.9686
1 31.8542 35.3533 21.0501
1 10.0432 3.83014 38.7583
1 9.40605 34.0438 3.63607
1 45.9256 3.42817 2.91884
1 46.0343 48.9978 36.4625
1 42.8062 38.684 47.7337
1 40.5886 11.4591 1.05338
1 11.5361 22.086 49.1495
1 49.3696 34.4509 29.645
1 9.47015 18.4255 16.1418
1 24.2654 47.0542 8.99441
1 6.23864 40.3915 40.4432
1 13.8419 48.6127 39.7407
1 24.541 15.1396 9.03201
1 17.035 5.29502 38.1053
1 6.47275 22.2784 13.8232
1 1.73275 8.39668 2.57116
1 24.7761 23.3858 4.36504
1 32.66 34.8596 41.9771
1 35.0856 28.0543 14.9837
1 9.11436 46.9246 13.7847
1 43.7916 13.3436 22.5066
1 0.286704 45.8029 24.9858
1 15.5689 33.5043 24.6548
1 48.5486 8.12427 13.6222
1 38.309 23.3001 17.1248
1 26.2116 22.2379 20.9381
1 14.9011 17.5708 10.0064
1 10.3302 0.794853 45.98
1 15.1447 46.7468 3.63246
1 40.4718 49.1182 11.1699
1 13.3783 29.3094 23.047
1 36.3965 2.44326 27.2616
1 12.8794 47.0294 44.0503
1 43.4366 34.2797 32.3183
1 9.46726 22.4483 41.1696
1 29.5111 38.1087 37.2137
1 2.24446 13.0454 14.8556
1 45.1218 5.57034 0.544964
1 13.6798 36.3686 44.058
1 15.8942 38.2269 11.3945
1 30.862 5.99982 8.51611
1 47.2587 10.1219 39.724
1 5.42311 43.2153 30.3385
1 20.129 32.7579 29.1535
1 5.34515 46.7722 49.3304
1 29.4147 10.9066 4.00832
1 20.1474 42.1672 38.986
1 36.688 4.84575 30.6655
1 11.7596 42.1987 32.0744
1 48.275 4.97726 23.608
1 30.5667 28.6271 6.76697
1 3.93131 19.0921 45.7914
1 48.978 24.6668 3.12625
1 28.9635 48.5847 14.5778
1 49.4909 45.5807 31.6901
1 19.7091 10.4719 31.6673
1 13.8449 19.8246 48.809
1 10.2797 5.85669 14.1401
1 40.816 47.3351 47.6388
1 1.38375 44.7731 44.9894
1 24.9118 21.2976 7.21601
1 4.46097 39.7046 31.3045
1 45.7968 45.0271 18.4538
1 16.8628 27.6367 45.1503
1 2.1079 41.9661 47.738
1 3.5583 19.2063 15.9946
1 44.5504 25.529 42.1615
1 7.63996 3.00056 26.227
1 49.304 48.8322 16.949
1 44.9477 7.15631 8.33469
1 26.0209 33.9869 38.1765
1 9.36437 6.13894 23.8137
1 44.4054 21.1384 6.41642
1 18.0154 41.0159 46.7321
1 38.0846 18.0357 7.67778
1 8.88895 1.52896 43.6669
1 8.33654 19.4571 19.8018
1 25.1889 14.027 48.9891
1 32.3149 30.2367 40.066
1 39.8979 11.0707 23.87
1 8.20267 37.6304 37.3397
1 37.0982 13.2115 24.8692
1 2.21995 7.55614 33.7667
1 18.1969 48.425 20.9401
1 36.8416 45.8815 25.9869
1 12.6515 16.2005 18.1191
1 3.53909 15.3543 37.2693
1 42.6309 11.8246 6.21997
1 10.0316 31.7401 30.6198
1 28.6667 38.7474 40.7824
1 26.3865 42.8166 27.4008
1 14.5184 46.3585 7.99482
1 31.311 5.48336 34.1181
1 0.358243 42.495 38.9021
1 27.2191 6.09828 30.3397
1 26.7549 31.8315 43.7611
1 8.52421 12.7472 2.62544
1 16.5372 12.6512 39.4572
1 9.46812 46.4186 5.54348
1 35.0822 32.958 31.776
1 19.6267 14.3735 34.3313
1 28.1111 44.6028 23.8858
1 27.6786 33.5009 32.1591
1 13.7661 43.4548 21.7174
1 24.5168 4.85401 6.14007
1 18.094 16.7646 -0.0157533
1 1.5831 43.3715 15.5892
1 40.0604 29.7163 15.0614
1 10.4277 22.7516 25.6341
1 45.9557 29.6378 2.20377
1 46.5966 20.2183 42.3874
1 2.88683 9.17684 16.2265
1 33.8496 44.5077 35.884
1 22.4618 43.8443 14.329
1 25.9173 39.73 33.5293
1 40.9077 41.384 20.5307
1 23.4493 36.9847 4.35109
1 30.4372 11.5876 42.721
1 28.8967 34.9928 8.47026
1 6.31446 12.6604 36.2992
1 8.6045 43.1097 47.8577
1 5.96894 18.8305 4.97017
1 8.21509 33.9452 17.5685
1 1.16354 29.8361 10.3054
1 13.4448 48.2211 16.4442
1 43.2066 42.9285 21.6491
1 49.4913 9.14709 6.41826
1 45.8682 31.5805 17.057
1 13.8874 27.2688 35.6551
1 21.3418 21.4644 0.734269
1 24.7893 2.59213 12.9953
1 17.1769 20.0785 2.86301
1 6.95512 44.6589 8.51279
1 7.45978 38.6677 13.6475
1 25.3236 24.4491 6.84512
1 47.5893 19.6339 18.8629
1 37.6495 29.2685 31.5457
1 22.4275 39.1058 47.579
1 16.7286 18.8977 48.4713
1 0.713446 7.68012 16.3864
1 34.67 8.79004 38.0256
1 21.9025 1.34383 15.2823
1 46.9446 13.6028 19.156
1 38.3701 34.9931 12.786
1 25.6717 19.3885 32.9684
1 41.1788 25.7229 10.915
1 38.5991 5.04902 17.1662
1 34.3011 19.4823 46.8869
1 0.377185 15.3625 29.1375
1 46.507 47.1575 13.2072
1 8.61132 26.9506 42.2994
1 8.2481 31.4055 6.48005
1 15.958 12.6457 10.0464
1 31.1838 15.3744 17.248
1 10.6287 23.2249 34.2811
1 21.4029 44.5731 31.301
1 47.3585 33.9856 17.4405
1 42.2429 7.80189 19.9015
1 29.7121 35.9188 39.0379
1 7.85622 1.17242 37.3773
1 30.5236 34.1299 46.7204
1 1.52523 26.4877 38.1259
1 16.7203 47.807 46.3288
1 23.7273 49.9719 25.177
1 44.1145 4.10192 41.4837
1 34.8601 35.8181 30.8545
1 5.29614 19.6638 36.7281
1 33.9405 24.0476 16.9905
1 38.5661 29.2512 35.5007
1 37.4011 28.6416 -0.0810675
1 12.5423 22.2378 15.15
1 30.2535 25.112 34.1075
1 28.2091 14.1415 1.46737
1 14.651 2.11846 27.0959
1 32.1221 31.5585 16.9549
1 48.4288 11.9592 7.99496
1 5.53699 48.3927 11.0528
1 6.09033 29.421 19.2643
1 26.1854 -0.00648543 34.4784
1 9.42718 7.51706 7.11047
1 28.3756 34.1225 37.1716
1 20.7781 5.99616 6.1054
1 32.3442 0.234014 1.17079
1 19.3964 13.1482 8.7625
1 27.3872 4.15471 16.6755
1 18.1946 19.8369 9.4698
1 11.1852 4.69194 22.1792
1 35.2736 6.66532 24.456
1 41.2419 10.6003 12.1165
1 22.5383 32.9471 10.2096
1 42.6381 16.4711 17.2273
1 19.2489 23.1132 4.22635
1 39.5753 18.1534 17.5884
1 28.1313 11.8446 29.5535
1 16.8535 6.83336 40.4363
1 48.318 29.8511 17.1628
1 26.4783 47.5238 0.387496
1 10.7155 41.4531 44.5366
1 11.7948 34.208 22.1924
1 39.3471 29.8161 4.13922
1 6.87289 35.4886 49.3628
1 47.6218 7.04114 25.5551
1 8.70332 39.4718 10.4178
1 29.6024 29.0486 45.3099
1 40.2417 44.2569 9.38944
1 13.517 31.4432 0.805679
1 10.151 30.378 4.11443
1 22.3918 26.447 18.1022
1 35.4424 11.3823 13.1212
1 9.53619 1.83044 24.7562
1 40.9473 24.3258 3.34708
1 4.61033 25.1064 10.5321
1 45.4818 29.3053 48.9486
1 25.3983 44.9793 30.49
1 42.3211 17.3762 44.3868
1 33.0367 41.2343 48.2065
1 0.154939 21.9567 26.8359
1 13.009 48.476 6.11843
1 33.1909 28.6602 19.7557
1 43.1649 35.6054 37.8191
1 47.1583 17.752 34.0691
1 7.53059 44.3768 45.4777
1 20.687 23.191 20.8413
1 7.68971 49.0463 14.8922
1 13.2412 13.4239 31.6944
1 37.0012 3.95035 14.8294
1 35.4606 16.4462 3.69577
1 14.0454 48.9649 11.203
1 7.98046 2.78149 5.43058
1 49.8667 13.9664 39.8766
1 6.32983 6.22724 37.6112
1 7.71577 10.7553 0.181514
1 25.36 37.6688 18.9449
1 35.6345 19.908 49.5788
1 16.8082 36.5758 5.23726
1 37.0735 30.2211 2.45381
1 41.095 14.6021 44.8194
1 34.5381 20.9382 2.14506
1 31.8936 34.9835 4.28577
1 49.6428 30.0687 0.517687
1 49.3991 16.3839 43.8609
1 45.9427 32.0936 27.1021
1 25.3191 19.0949 5.17679
1 26.4438 31.9594 13.1768
1 10.5933 48.0174 9.6609
1 10.4915 35.6076 33.7237
1 3.86419 36.9474 29.8697
1 19.6544 37.2998 12.8801
1 30.8466 15.7408 31.6666
1 25.5685 14.7538 33.5026
1 11.2003 8.8711 48.5887
1 16.2854 32.4843 42.4483
1 1.36527 36.336 39.4304
1 5.94518 0.586655 21.4943
1 38.5282 19.237 46.038
1 49.4199 7.07222 27.5826
1 45.4219 23.3474 24.1695
1 9.98308 47.964 43.4182
1 10.6243 35.055 1.18715
1 25.2245 33.2512 24.4357
1 10.0028 11.0678 44.5283
1 30.8142 39.3377 49.153
1 4.38836 42.6363 5.94446
1 9.82222 19.3413 23.6335
1 4.9035 42.6803 12.8372
1 44.488 25.4579 0.916049
1 44.4537 27.5463 23.905
1 1.0401 44.2744 29.0091
1 45.4199 30.3423 29.1477
1 37.9354 35.1333 30.3541
1 41.0006 9.43144 36.8731
1 31.3761 37.0496 43.3439
1 8.969 21.9709 3.28881
1 39.4589 37.9557 32.4182
1 39.7871 38.7562 40.5353
1 9.01051 44.0162 6.49748
1 5.26871 49.1913 13.5523
1 29.9882 28.5726 1.62613
1 4.79493 5.78291 3.64675
1 15.8636 42.299 10.3992
1 3.36585 46.6471 39.6536
1 0.0482939 5.45676 48.0661
1 47.464 8.13931 10.9534
1 2.03515 5.44653 5.50987
1 13.7133 5.0643 0.0846667
1 24.1412 30.0553 27.7097
1 22.0953 15.5426 44.1091
1 44.0301 44.6049 1.88478
1 8.09997 3.69518 40.6108
1 6.96945 25.1496 26.7417
1 36.4074 35.8178 4.67252
1 48.6774 28.7423 46.1417
1 20.0672 28.8253 37.8201
1 13.572 5.46741 44.5125
1 7.06009 28.1768 37.9834
1 5.48998 22.5836 9.6721
1 4.30813 24.0184 0.60252
1 48.7078 23.6617 18.795
1 27.2614 21.171 14.5028
1 38.2824 10.6555 40.3625
1 5.90096 38.5206 28.6638
1 12.0874 26.6931 18.9617
1 17.5048 8.66718 20.8456
1 41.7946 27.4036 35.4891
1 43.939 33.9613 3.58779
1 9.95911 47.7412 18.8406
1 38.7572 19.1464 20.9048
1 37.5825 8.08817 13.4403
1 18.9568 37.1971 18.823
1 31.7476 26.4277 48.012
1 3.38557 28.1267 44.7674
1 47.6628 34.3846 8.16411
1 14.3919 24.4674 11.6888
1 31.7965 33.9515 39.4429
1 3.19694 29.9472 15.6216
1 34.9874 13.8959 32.3083
1 48.5724 14.66 8.42148
1 1.72611 22.6894 7.95565
1 47.5962 40.5675 16.2006
1 45.7127 23.0794 42.9611
1 16.0705 2.58026 46.1059
1 8.02041 28.6106 13.809
1 16.9127 3.1374 9.51765
1 25.1658 34.1711 14.5654
1 48.6801 47.6736 35.0004
1 32.7172 39.8747 11.6586
1 6.2006 37.6817 41.2487
1 3.79133 5.41091 26.1073
1 45.2948 41.5122 20.741
1 22.5224 42.2721 27.4776
1 25.0926 27.1793 29.8673
1 32.2452 30.2051 42.8685
1 41.6 49.8026 20.7687
1 14.252 1.45038 16.0367
1 46.3868 30.2397 31.7898
1 1.64477 25.4007 21.4911
1 6.8671 19.5498 23.8346
1 42.2828 37.1453 4.05061
1 8.8497 45.3823 33.3607
1 32.7121 12.9222 33.5514
1 4.84797 34.3181 30.39
1 49.5303 22.0679 45.3334
1 2.78074 20.5317 41.4887
1 25.0339 30.6561 45.6814
1 46.7432 43.3796 38.2872
1 18.6367 1.04151 40.8124
1 14.2378 9.85697 49.0743
1 40.683 7.08731 40.5746
1 25.2583 36.1769 45.8735
1 31.524 10.8839 9.49679
1 10.5389 36.0789 7.15565
1 49.522 41.0623 31.2943
1 2.30722 11.0734 10.5524
1 16.1027 37.1877 48.0041
1 11.6064 8.79747 16.062
1 8.90893 32.2907 10.1072
1 46.1445 23.4312 19.7728
1 21.4745 7.48929 21.2233
1 9.40787 18.0342 39.2593
1 47.3486 23.9499 44.8438
1 30.9719 49.0889 8.58334
1 4.19076 4.21446 48.7097
1 11.2017 37.5289 24.0399
1 30.2133 35.3944 16.4775
1 4.23399 22.9291 21.3024
1 8.60293 10.7652 47.1569
1 15.8016 15.1498 13.8479
1 32.3371 40.7572 14.6407
1 25.6735 26.3666 10.7785
1 37.4506 26.4989 32.3448
1 42.9559 46.387 49.347
1 15.7018 41.3232 0.215865
1 23.6449 37.0701 48.0062
1 5.13663 16.2585 39.2503
1 13.1408 40.466 27.4571
1 10.0224 4.59294 3.58563
1 22.7325 23.0818 22.7247
1 48.4235 35.2608 43.582
1 15.8203 45.6157 42.6352
1 24.0358 43.947 0.536891
1 26.2314 49.5194 21.3427
1 14.8437 32.2763 16.153
1 17.5244 40.9771 2.08833
1 18.0018 34.1983 26.2464
1 12.0671 39.3611 16.1167
1 47.4676 43.8582 13.1959
1 7.44466 10.8135 4.9469
1 22.3074 26.3548 44.3712
1 27.8653 33.952 27.5403
1 8.55853 25.8019 1.94085
1 2.05174 14.8442 22.0173
1 6.12464 12.7093 47.596
1 1.95837 32.5916 4.61094
1 5.02984 17.1709 14.8259
1 10.1087 11.4457 26.8533
1 39.4133 37.292 14.2174
1 6.51296 26.1565 32.1547
1 6.97175 16.4529 48.1744
1 10.5653 45.5406 17.2632
1 46.7842 41.3605 3.69662
1 31.7786 28.7902 49.519
1 2.18245 24.5728 33.3307
1 32.2987 45.227 20.9877
1 8.67025 7.69362 47.3351
1 16.1783 33.4088 46.8173
1 18.0371 44.3785 5.82816
1 26.0806 4.03329 11.1551
1 33.3549 43.0002 27.088
1 42.2017 40.5905 2.68032
1 17.6808 41.2912 28.8739
1 5.66058 3.05651 19.6532
1 10.7167 25.9711 4.21353
1 39.1913 39.2152 37.7706
1 40.0111 6.17874 42.9075
1 41.2838 6.1662 32.629
1 19.5436 39.8011 29.7991
1 22.0198 46.2531 23.0238
1 7.46404 25.0616 13.7073
1 11.7151 37.1213 26.6913
1 19.9316 21.7794 37.6414
1 48.0675 48.6114 32.4576
1 38.4947 5.46128 12.9481
1 33.4679 44.441 33.3628
1 36.2077 15.0424 35.7676
1 44.8575 35.7835 20.407
1 19.9564 18.4716 35.9175
1 35.6136 27.0674 34.1014
1 12.5565 40.9455 36.7561
1 29.3146 9.45958 1.01563
1 43.4898 28.77 17.9528
1 41.7284 27.2743 24.0195
1 33.9642 28.9929 46.855
1 35.6941 46.3702 21.7984
1 40.6781 3.09069 35.067
1 30.6109 6.86345 39.1793
1 15.9402 28.2441 15.705
1 17.782 18.9545 22.483
1 12.5526 26.9271 26.2026
1 46.3765 37.3857 4.11122
1 17.4043 41.669 26.1774
1 43.5187 22.4195 28.2186
1 17.1846 28.7218 23.905
1 31.6545 20.8311 24.877
1 36.4528 48.3215 12.8857
1 15.1419 22.0082 31.8211
1 9.30905 16.7595 44.6423
1 30.9811 44.887 3.25683
1 27.579 11.7169 7.75508
1 49.4727 34.4236 24.6593
1 41.3589 31.2454 48.7896
1 34.861 40.1479 17.8728
1 24.3054 14.8382 22.0638
1 41.8693 13.1215 18.6702
1 9.55053 15.2701 22.0977
1 8.34561 40.1626 17.9773
1 24.5016 41.2942 44.2419
1 25.0213 13.0011 23.8896
1 49.6859 43.1959 41.7332
1 24.9158 29.8218 30.5186
1 37.2422 30.6444 39.7922
1 0.364263 3.88489 11.9867
1 23.159 31.5915 25.3858
1 29.7423 43.7303 44.682
1 32.2704 7.03039 2.17407
1 2.10436 5.72033 2.75032
1 42.9733 29.2025 8.79614
1 4.12411 35.2254 27.6881
1 12.5331 38.3856 42.5731
1 23.0671 47.1542 47.0127
1 20.1743 35.5221 8.13607
1 49.707 36.2152 7.46025
1 6.48709 1.73743 2.89459
1 27.7061 25.3395 39.5904
1 7.26067 23.4602 1.21582
1 15.9336 34.8846 49.1779
1 47.1394 34.2702 13.2984
1 1.83257 23.0169 19.9455
1 1.61804 27.1419 19.1218
1 3.73128 36.7157 5.76859
1 28.786 14.6717 36.4619
1 31.4912 10.4202 45.5529
1 31.6908 17.9159 18.0581
1 42.6017 26.5853 7.33013
1 4.44916 20.6086 43.6129
1 45.3765 17.3267 5.62071
1 43.9919 46.9045 3.46972
1 37.4143 22.4342 26.7481
1 0.116826 20.7702 20.2089
1 22.7705 9.47878 3.12327
1 33.1385 0.729299 37.791
1 35.8106 23.2382 24.7889
1 45.682 37.653 34.6131
1 29.873 8.36421 28.534
1 43.5386 12.9916 45.1824
1 17.7639 9.96944 16.5919
1 10.7358 30.5286 45.567
1 23.0077 29.0209 0.575502
1 40.5263 39.2771 5.03859
1 19.0565 2.88917 26.3929
1 7.48315 32.6514 24.4107
1 23.1324 17.9453 15.5524
1 14.8355 34.092 1.88192
1 19.9769 35.8624 35.8244
1 18.2365 31.5099 0.634915
1 3.89126 29.6254 22.9884
1 25.1076 40.9736 22.8528
1 16.3343 20.0346 18.2525
1 9.01103 28.1123 4.80542
1 16.2494 16.3155 36.0919
1 41.9353 3.80577 23.4874
1 3.08313 12.2683 47.3743
1 39.5171 5.62736 26.6624
1 19.3354 27.268 25.6765
1 7.37009 17.9778 35.8832
1 40.9787 35.1551 39.3121
1 3.1843 29.8411 11.9165
1 33.0997 46.2276 4.61855
1 9.87358 41.3473 12.1042
1 49.2826 48.9312 45.0647
1 35.4871 33.6655 19.4136
1 20.5272 49.4156 1.6646
1 19.6412 9.18084 0.524348
1 4.81986 31.3085 7.82991
1 41.8143 37.4842 13.0459
1 43.9377 4.28355 48.1339
1 5.41197 46.8282 35.9637
1 33.4588 47.7509 -0.0147679
1 18.5203 6.34974 13.0148
1 46.5425 23.3804 49.357
1 33.4229 38.7494 39.1936
1 21.8605 33.1614 21.1021
1 28.8209 45.8775 31.038
1 1.02891 28.8271 25.8989
1 43.5846 21.6304 47.0245
1 45.61 37.9851 1.58676
1 47.8732 22.305 3.9254
1 30.789 2.31261 26.6113
1 35.7147 41.8321 24.1746
1 27.3278 28.2173 8.79836
1 8.23144 0.688231 31.7034
1 25.2088 31.2564 8.96298
1 13.4905 43.0729 28.0758
1 41.8834 8.01696 22.7284
1 35.062 12.6053 22.8191
1 6.09464 42.4899 20.704
1 11.0911 46.8775 23.4158
1 15.3623 43.5746 25.9896
1 19.4369 29.7114 27.4583
1 3.00956 47.8178 35.8763
1 8.73172 32.4433 38.0115
1 1.10821 41.5947 28.9571
1 20.003 15.038 31.3897
1 2.1774 1.76356 7.38346
1 3.37866 49.7319 9.48503
1 16.9516 31.4911 4.95514
1 49.1321 14.6345 23.2668
1 20.6037 15.2506 23.2923
1 1.51957 11.0761 7.7289
1 27.361 1.00595 19.1765
1 3.06523 25.2779 30.8729
1 18.8227 38.4381 47.5611
1 45.9764 36.6178 44.6031
1 19.8674 5.71877 36.0828
1 33.4022 30.0021 2.61459
1 42.4603 33.0243 36.1414
1 41.3585 28.4192 44.4662
1 39.3771 43.7955 1.35707
1 10.9703 6.22493 32.7706
1 8.01795 37.5175 17.861
1 47.1803 32.4987 47.3409
1 26.3478 26.3647 43.623
1 35.0821 17.4819 7.45724
1 1.41152 5.91316 45.9979
1 13.6428 4.5755 28.2701
1 33.1436 37.1409 35.2331
1 28.7645 23.2035 11.0157
1 9.7519 40.7567 42.1603
1 19.7252 9.35177 6.21308
1 27.8576 16.1996 3.17111
1 8.27983 31.0344 28.6193
1 41.9355 46.6614 40.167
1 17.1041 12.6268 0.126091
1 33.3405 34.0259 12.8195
1 41.4319 43.5158 5.18758
1 7.60907 15.223 31.4333
1 34.1816 3.46871 14.7472
1 25.9553 48.1598 38.4181
1 19.2993 6.44391 29.657
1 8.5683 28.4266 23.9713