4096
 Atoms. Timestep: 3880
1 42.2034 45.8975 11.7116
1 16.784 10.9201 24.2304
1 32.1808 8.68396 16.2896
1 28.2459 38.9141 14.5353
1 39.9936 33.3466 0.9025
1 1.6283 28.0273 39.7416
1 21.2842 15.1753 33.2214
1 10.473 1.03734 3.88882
1 1.05177 39.8884 30.0517
1 24.661 14.6095 1.41652
1 14.4655 4.12742 6.69745
1 1.93407 27.0945 15.1044
1 44.1388 16.1616 19.7844
1 15.7674 20.6637 34.4999
1 16.1232 5.59329 26.6645
1 48.8555 23.1126 17.0562
1 13.2703 3.42251 44.2706
1 43.4782 28.7488 6.56979
1 19.9929 38.0898 19.0117
1 28.7827 6.10146 34.9336
1 11.3574 39.2408 13.9558
1 31.5286 1.38797 27.782
1 20.9735 41.7303 48.1961
1 25.2653 49.4873 8.15314
1 20.8954 46.1831 16.1696
1 15.5827 17.8168 16.5099
1 21.6071 37.3577 17.0448
1 34.8136 21.6713 21.6714
1 45.9404 3.61606 42.008
1 29.8805 34.0269 1.7313
1 16.9911 3.89654 3.723
1 31.0526 30.5451 38.7417
1 42.2063 19.9654 16.7555
1 4.64007 4.07533 27.5718
1 13.0197 0.821846 33.0054
1 18.5385 27.9837 49.1425
1 20.3438 25.7071 2.32576
1 16.6296 43.659 27.4981
1 27.5288 2.55456 2.33683
1 49.2039 11.2351 11.8338
1 13.636 8.35261 46.3918
1 27.5607 0.178632 19.352
1 13.2039 23.0025 30.1112
1 35.1364 40.1083 8.46758
1 21.0808 10.687 14.1254
1 40.9375 6.96078 10.2505
1 19.8382 1.96516 31.8232
1 42.8723 37.1367 28.231
1 22.0949 36.9748 25.3411
1 20.1247 23.2993 22.6815
1 7.54869 8.61498 45.9633
1 28.5963 40.2025 38.9892
1 7.74887 16.5019 45.1436
1 31.2333 35.9935 28.1948
1 9.6069 36.0699 23.8782
1 5.51634 5.60917 11.4892
1 0.932008 18.9625 12.32
1 7.20898 9.2588 12.6072
1 13.5838 41.6109 18.0088
1 9.20335 47.1568 20.6919
1 38.6954 36.985 32.2506
1 15.4684 44.1467 1.67826
1 14.4106 2.53009 48.5938
1 6.03183 41.4529 38.227
1 9.26462 31.9312 44.9037
1 45.968 31.3477 10.4788
1 49.2502 10.0184 49.3552
1 2.32614 28.9849 47.7833
1 11.455 48.9949 8.25659
1 27.6525 7.35834 49.4081
1 28.2147 22.4411 21.1951
1 36.5786 21.1184 10.169
1 29.1759 36.3332 3.12438
1 22.6163 47.3486 45.7958
1 13.6737 10.1707 12.6859
1 46.577 24.8556 13.4463
1 7.62383 18.9278 17.6186
1 48.8465 4.7783 32.2222
1 39.6703 11.3724 16.4364
1 33.0209 42.455 12.6439
1 24.8078 26.3961 18.9455
1 11.3838 21.723 14.3249
1 21.8835 21.4294 21.4445
1 43.4373 7.06917 32.839
1 6.91711 20.3888 24.5709
1 39.8283 20.9346 12.529
1 43.544 19.0226 43.3005
1 46.5786 6.50022 44.2872
1 33.0442 14.5435 38.7137
1 25.6246 32.4992 13.0386
1 20.9062 2.41788 37.0752
1 48.8219 35.1101 14.7626
1 36.768 27.3836 36.0614
1 17.8126 8.38577 32.8922
1 39.1226 29.4562 20.0939
1 42.8252 25.7491 9.51726
1 11.0401 10.077 17.9104
1 9.8093 10.323 45.7527
1 23.7725 32.8616 40.7518
1 23.2297 26.4078 34.1229
1 13.7794 29.7173 12.853
1 34.1042 6.53506 6.22787
1 14.7377 18.6022 32.9228
1 23.9903 49.1245 32.5759
1 40.5004 49.7517 46.0105
1 34.9175 21.5171 47.7352
1 7.90068 46.7918 41.382
1 37.5025 21.1878 14.1684
1 8.27912 3.48571 17.2038
1 10.5102 0.512688 31.0362
1 2.02645 20.1519 5.78691
1 17.9324 39.7833 4.7044
1 0.360296 42.1098 7.70944
1 33.7384 39.6476 12.684
1 23.0924 35.1526 11.7951
1 7.56242 46.7677 8.99195
1 42.6513 9.45086 28.5775
1 39.4333 13.2451 44.3891
1 49.5314 1.22056 29.0434
1 41.3221 2.36938 32.0188
1 -0.0755148 1.28033 8.96466
1 13.1996 31.5696 31.1838
1 20.2649 28.0874 20.6079
1 18.4795 19.7309 18.7105
1 18.7301 43.8741 32.7546
1 42.6644 42.1033 42.8002
1 45.9266 32.7116 36.4505
1 16.5707 47.7442 36.6768
1 21.7349 21.2726 49.8675
1 21.8817 29.4531 23.4843
1 47.7355 0.553805 3.83544
1 26.2608 46.854 12.6615
1 6.50293 28.5388 45.3573
1 0.256318 19.6312 19.9289
1 9.89188 28.2216 42.6888
1 46.9284 26.9242 10.4378
1 4.30672 2.29787 3.31114
1 26.4364 12.6841 2.12134
1 48.126 44.0158 26.1522
1 33.5942 42.9061 48.2118
1 15.5783 25.8929 2.36125
1 29.4274 3.93301 25.1116
1 3.11711 22.7217 33.3516
1 38.3702 28.8995 1.75662
1 39.9157 16.1059 4.08904
1 15.2924 7.94814 22.8034
1 11.7673 34.2144 12.0747
1 15.6656 26.839 11.2708
1 27.9363 17.926 25.9689
1 7.49225 1.51359 8.36407
1 15.2261 41.196 10.1228
1 4.23113 18.5896 6.92707
1 4.89897 32.8548 29.8678
1 18.6493 38.1559 49.2003
1 38.3581 17.3149 35.8506
1 15.4045 14.4495 44.8329
1 29.9023 11.7121 36.4711
1 8.736 37.8283 19.9596
1 41.7434 43.7424 21.0385
1 30.3188 43.331 30.6256
1 47.2507 12.7572 18.6425
1 7.47289 31.8981 9.94629
1 30.0034 36.8642 23.7985
1 5.42559 39.972 9.33215
1 42.3723 32.7165 46.8021
1 49.2957 49.0123 2.00906
1 44.1925 38.7323 46.4988
1 48.8747 35.9123 42.5683
1 47.5188 7.40953 36.2205
1 4.72722 46.8725 25.6336
1 29.8559 47.9264 28.8734
1 30.5686 17.8644 14.4555
1 37.0449 18.4794 13.169
1 25.2985 45.6258 32.3394
1 39.0124 21.1708 9.60113
1 18.5608 23.2051 10.6516
1 13.2711 24.2551 25.5314
1 43.6148 24.0563 47.5937
1 16.1371 24.732 22.6758
1 10.647 39.6134 7.75613
1 26.5303 39.7931 26.037
1 26.5677 2.16879 34.0728
1 2.73537 2.81414 5.83079
1 29.6997 11.7296 13.8593
1 4.60001 31.0464 38.3827
1 6.13814 32.1392 14.9819
1 46.3883 47.7239 42.547
1 18.2585 28.9452 41.9055
1 44.6508 47.3711 29.0684
1 0.925593 17.9059 16.4251
1 34.1202 22.7502 27.9512
1 32.7687 7.82111 33.718
1 43.3408 10.3544 17.7049
1 27.5621 47.8793 7.07125
1 10.322 44.9601 28.2193
1 42.3652 8.51163 16.0354
1 8.43727 24.3803 19.0772
1 27.3685 47.6024 16.1127
1 17.2542 0.649457 6.33162
1 49.2949 34.5078 44.8014
1 45.5166 28.2093 1.14138
1 4.48867 20.3216 13.8836
1 40.6352 37.7639 33.8977
1 3.45838 15.1191 34.9668
1 40.2504 18.394 25.1797
1 37.3588 21.4092 43.3235
1 6.24 40.2985 14.8432
1 36.8716 9.51478 12.9683
1 25.0629 23.5241 13.1628
1 11.6421 25.7632 0.197629
1 19.8707 33.2875 43.969
1 18.7119 44.1869 37.9095
1 39.9848 23.2486 20.1855
1 37.6176 32.7388 8.92121
1 3.22744 27.3151 41.9085
1 6.3549 2.04172 39.2851
1 15.3582 24.9189 15.137
1 23.6517 3.46993 6.32699
1 15.7248 46.5635 44.4149
1 13.8914 28.5343 45.062
1 39.5072 27.5997 17.5682
1 37.9494 29.456 36.6798
1 41.6221 28.1402 11.7412
1 4.00328 21.3365 31.4398
1 47.272 48.3147 39.5187
1 40.3669 18.8564 32.875
1 41.3705 40.4704 3.94789
1 27.6803 45.5081 14.4493
1 20.6014 10.7833 21.3881
1 22.183 21.8535 10.4554
1 22.7839 42.5189 33.0164
1 43.1096 16.8862 32.0632
1 13.6582 41.3616 38.4908
1 10.7758 38.336 23.4299
1 19.6684 27.7836 27.3935
1 39.7263 49.4895 40.626
1 3.66423 33.472 25.0392
1 16.4919 1.73692 37.4316
1 44.1779 46.5287 24.1831
1 12.8608 26.4741 31.7694
1 16.8053 44.7264 16.8318
1 6.89083 4.41612 29.0149
1 40.8937 46.0258 19.7446
1 7.5422 0.250856 43.9845
1 35.0801 5.4286 31.6105
1 41.5189 24.5958 13.9086
1 44.315 23.0278 2.31521
1 26.3172 9.76822 24.4459
1 45.0952 44.804 19.4756
1 46.9888 6.44993 7.54359
1 3.61156 9.04224 34.3027
1 35.7196 37.7064 2.21951
1 21.0848 30.6746 19.2848
1 36.8703 23.4066 35.9453
1 0.791142 48.0175 17.2519
1 40.2954 40.9499 48.9167
1 11.6455 12.1601 9.31561
1 45.335 33.6269 40.7034
1 16.0136 49.7192 30.3134
1 22.0785 24.1156 5.63054
1 23.769 20.2553 4.08507
1 26.6055 45.6715 5.22265
1 14.6983 48.1335 13.3629
1 20.8511 4.33864 2.98255
1 33.2383 16.223 8.15291
1 37.6879 12.0954 5.37462
1 38.9786 13.472 3.48405
1 9.1086 3.50121 27.4266
1 27.6211 7.73435 32.2138
1 1.50528 42.8033 37.3254
1 39.3235 10.7666 43.6094
1 10.3675 20.8553 26.7225
1 39.1082 24.3025 44.7476
1 5.32643 12.0597 38.6064
1 12.9895 21.3659 25.2535
1 21.5157 12.0303 49.2952
1 4.4354 6.98045 0.138287
1 6.38855 40.5256 21.1152
1 35.0425 13.2006 30.8801
1 49.0082 28.8713 28.1257
1 23.5796 14.065 31.4655
1 12.4458 36.2028 -0.129442
1 25.6846 21.3596 34.532
1 21.8341 35.8772 45.6143
1 33.6168 33.2539 34.5348
1 16.4523 41.5521 6.2242
1 6.93886 38.9549 17.6005
1 30.2153 3.68902 7.20571
1 11.1144 26.5412 40.8195
1 42.3743 38.0192 9.65715
1 6.61123 37.6684 21.2469
1 28.3226 4.93096 41.5999
1 30.8066 33.1773 16.8358
1 29.1793 25.1377 29.7905
1 10.8606 24.0171 40.9738
1 6.01618 19.3768 38.206
1 1.52289 5.84628 9.36834
1 27.8552 29.4287 40.6566
1 36.0647 30.6137 25.8025
1 12.5626 30.945 18.8176
1 1.47306 35.759 16.0191
1 34.7276 41.2882 29.3001
1 48.5268 7.97072 47.3876
1 7.74048 12.1677 15.313
1 14.7372 16.3466 22.241
1 14.2131 19.5467 22.0906
1 25.6212 35.3264 10.8685
1 39.7837 30.2097 5.77774
1 26.9623 5.51805 16.8895
1 49.0902 19.2467 22.6811
1 5.71897 13.0142 11.3961
1 28.7233 29.1031 37.106
1 48.4034 20.3506 47.0134
1 19.7714 14.5665 11.1711
1 32.8016 36.4543 24.0809
1 48.3322 29.9088 13.6572
1 32.5741 44.2787 31.4228
1 32.6925 24.2675 45.0151
1 18.3683 6.47036 0.7164
1 41.1881 6.91403 19.709
1 39.9771 0.100324 49.0225
1 2.69132 40.5774 33.4115
1 44.6883 20.9846 15.3023
1 14.3715 18.0158 46.5517
1 23.1898 8.18098 9.05921
1 23.0934 27.489 49.5113
1 40.1821 12.088 24.2864
1 48.0518 24.8355 25.6978
1 28.3587 39.7329 30.3618
1 17.4146 37.3784 18.6985
1 39.8853 11.4998 6.94173
1 13.0611 44.5573 15.8547
1 3.78165 26.7415 4.50909
1 35.3952 25.3308 32.4525
1 3.98057 47.383 15.7106
1 7.02504 6.78473 26.7551
1 27.817 31.3435 33.6613
1 37.1792 14.4826 8.9152
1 7.64945 29.9809 31.3895
1 21.0384 37.2654 29.394
1 7.86633 47.0286 18.099
1 0.371694 27.5496 1.88931
1 42.0845 6.65765 30.2281
1 22.9349 13.2191 26.3001
1 32.9235 27.2829 7.59504
1 42.5808 35.1978 39.8593
1 37.1394 12.2919 10.9581
1 16.1998 7.99943 30.6316
1 43.3634 22.4984 19.9573
1 45.064 38.1984 48.8657
1 7.27384 47.5812 26.2391
1 42.2037 23.1665 32.4911
1 11.4105 13.1957 37.8481
1 26.8187 47.807 2.66559
1 8.45669 39.1345 6.17183
1 2.75734 25.6058 32.5602
1 40.5316 22.0576 44.3368
1 43.0062 15.1186 23.9936
1 21.3859 42.9055 5.01944
1 34.9883 49.6211 26.3814
1 27.253 23.422 35.8963
1 7.43479 29.7116 8.03695
1 27.8553 4.5324 19.7108
1 22.4523 16.3187 43.7935
1 9.54665 41.2413 29.0514
1 1.41476 46.5433 5.1811
1 28.4203 41.4437 1.71481
1 48.1466 0.782447 38.9564
1 24.043 7.92864 40.9679
1 9.8198 29.9089 38.1139
1 27.3404 3.48823 45.0745
1 49.8429 8.50296 5.56568
1 7.57715 11.0089 2.95523
1 32.9392 20.2376 46.9256
1 2.26285 11.762 12.5006
1 39.1042 6.70709 21.5031
1 3.78894 31.4894 6.45832
1 25.0174 15.8202 3.89587
1 31.9727 38.05 17.8411
1 18.4958 49.6995 38.198
1 20.5665 3.55125 48.0999
1 3.2156 12.0412 25.307
1 37.7601 27.0015 21.4987
1 8.40527 44.9893 47.9489
1 22.9811 18.5413 45.6084
1 19.0726 2.54158 42.3959
1 4.70045 31.2061 49.7787
1 4.60958 27.3476 26.3309
1 37.7284 11.2867 41.3762
1 5.79073 11.5652 13.5437
1 39.3343 46.9105 30.3588
1 33.5808 23.6525 16.7568
1 19.9928 33.4484 48.4439
1 48.9823 41.0224 23.4188
1 23.9184 9.05979 25.9306
1 32.9328 18.9989 15.1912
1 15.9895 6.16941 16.9455
1 0.0601834 14.4381 48.6861
1 26.511 36.4665 25.2964
1 33.1187 6.16519 24.1577
1 10.4254 45.3148 17.2996
1 8.32921 47.8602 1.55636
1 28.3077 41.8352 26.6241
1 21.9147 45.6926 42.9963
1 18.6393 4.06874 35.6664
1 46.6989 19.8714 19.8618
1 27.8394 39.0452 32.8276
1 1.15176 38.0609 21.7988
1 16.8415 14.8498 23.0135
1 27.8807 8.47627 44.9883
1 24.6352 38.9053 27.7922
1 1.84419 2.38877 30.478
1 23.4374 30.7277 17.7535
1 18.3314 38.3575 38.0674
1 11.4546 37.4115 38.7481
1 26.993 23.0078 8.85488
1 32.7345 20.3891 26.076
1 25.0686 49.6358 27.0959
1 31.6131 2.87306 35.7493
1 25.4586 7.14229 27.2111
1 12.6956 41.873 32.9347
1 5.14686 32.5473 47.336
1 49.4113 1.73863 25.9659
1 16.8787 31.5567 40.0321
1 6.52483 42.7052 16.6978
1 18.165 19.031 41.5256
1 2.01648 40.1182 20.014
1 7.36603 33.2411 3.87435
1 38.1101 25.6248 42.1951
1 13.7481 17.2366 41.9637
1 23.9015 4.65167 20.241
1 27.9049 8.44048 5.85126
1 5.21009 21.9404 48.7294
1 14.6957 15.1322 28.882
1 0.607196 49.155 14.591
1 49.0702 22.6245 35.4588
1 25.5515 32.4661 26.4508
1 16.6925 10.8073 16.9719
1 28.7908 20.8091 6.23466
1 7.48959 43.9818 41.1332
1 7.88306 12.9663 6.94277
1 32.5106 22.6318 22.0876
1 16.7945 27.05 16.2657
1 43.4568 45.0366 32.9704
1 47.2887 8.71964 43.1491
1 -0.0355368 16.8249 8.88622
1 15.3412 48.5676 46.3231
1 36.8792 19.5004 29.8177
1 31.6929 47.2089 1.52583
1 28.347 3.07043 47.5212
1 46.0033 6.92789 14.3134
1 46.3464 41.4553 46.7202
1 9.68462 39.8911 17.2576
1 49.2283 7.47391 28.2166
1 8.6245 38.4894 14.6442
1 36.5182 9.1278 15.6185
1 12.9624 41.8882 22.1836
1 44.261 28.5671 18.4895
1 7.48758 13.9661 46.0714
1 34.5663 10.9548 19.0296
1 29.3332 1.73745 36.6593
1 36.6566 32.3337 47.0512
1 31.9139 19.426 17.6501
1 48.8769 35.4886 11.9192
1 18.7549 9.33032 38.5865
1 5.48485 18.6631 33.9912
1 23.8065 32.7213 7.98596
1 45.7315 46.9565 37.043
1 45.8175 40.0971 37.3167
1 34.7156 24.9759 24.3819
1 3.32012 10.665 14.8547
1 20.4511 33.8164 25.2528
1 6.58797 13.0438 28.3734
1 16.2052 20.8531 41.4895
1 21.6948 18.0885 31.9818
1 43.7771 5.47083 47.0838
1 16.3291 10.453 43.556
1 23.9982 48.1939 35.1492
1 48.2497 3.6542 27.8787
1 26.4334 0.839282 31.5996
1 29.5542 20.8938 0.0448144
1 8.6634 9.16752 21.6798
1 3.55328 36.9939 35.6011
1 36.526 2.83348 13.4066
1 1.13152 8.92 22.5219
1 26.4266 40.6309 34.8327
1 38.5785 14.269 31.777
1 26.5894 9.79288 39.6176
1 2.22317 38.5233 3.67177
1 15.3951 25.5902 47.675
1 2.90997 42.0221 25.0894
1 38.0292 19.8048 37.1494
1 34.9924 6.15748 22.0754
1 13.5323 6.93832 7.14427
1 26.7265 47.9493 25.5295
1 3.92763 12.6298 5.97652
1 45.8648 32.8639 12.848
1 5.62592 23.1092 19.6897
1 18.3226 20.1643 45.4373
1 45.9189 41.9237 13.8606
1 21.4449 19.2551 16.4275
1 17.4891 41.5414 20.2981
1 9.52987 36.6296 28.8049
1 5.79344 8.77417 6.11287
1 5.34409 31.3465 27.782
1 10.4686 21.7554 3.13087
1 16.0769 27.1528 49.734
1 23.8636 24.3207 46.6692
1 0.830901 23.2063 9.11419
1 29.1262 8.27508 38.8394
1 29.2288 41.7619 47.7405
1 7.59522 20.9146 29.235
1 21.9153 0.0270257 46.536
1 15.4309 47.9922 10.5257
1 10.8739 29.146 28.5048
1 45.8242 26.112 42.8462
1 23.4407 10.1229 12.3271
1 42.4558 44.7616 1.51495
1 7.10141 36.4582 26.8731
1 11.3443 41.0336 36.9867
1 39.9062 1.38137 20.5827
1 8.12563 2.14389 48.1121
1 9.28586 24.6403 0.236935
1 32.8214 8.2465 45.4392
1 14.7369 21.1823 28.843
1 29.7373 21.0485 37.3277
1 25.6907 11.3112 19.2842
1 41.0467 16.4527 39.5055
1 26.829 23.3997 2.41572
1 20.1716 15.8228 5.92427
1 4.28846 30.0357 34.3204
1 21.4515 16.9424 12.8263
1 14.4234 38.6414 23.9792
1 35.8228 48.6104 19.607
1 43.23 22.4752 23.1327
1 29.878 43.0489 34.912
1 14.1394 46.5858 20.996
1 16.469 34.7798 8.97965
1 30.7719 4.38213 48.4965
1 4.86422 31.1809 11.2721
1 25.6648 37.1537 15.0617
1 46.0599 36.0853 42.1019
1 19.2895 40.1643 32.6674
1 44.0145 13.0928 36.5876
1 31.5305 34.5921 36.7348
1 48.9174 43.9255 18.0166
1 16.4219 21.9753 45.7184
1 13.8906 43.0034 45.5406
1 39.1507 40.4777 21.8628
1 32.7721 3.5498 17.8642
1 33.4056 4.72702 1.65212
1 32.9749 15.0474 29.6183
1 16.9703 21.2551 12.454
1 17.7939 14.7836 6.26696
1 1.10075 15.4593 20.9181
1 31.1977 22.9768 13.7334
1 17.567 48.7271 32.0199
1 37.282 38.7855 22.9409
1 2.29185 48.181 31.0438
1 30.1433 35.9773 17.0368
1 18.6439 10.2619 27.3013
1 39.9697 34.2649 10.5209
1 13.794 4.13036 19.2228
1 22.7952 33.8756 21.1364
1 14.746 10.4358 30.2234
1 5.03775 14.6696 30.1567
1 13.091 1.12544 26.1517
1 10.7971 39.6113 42.1874
1 27.7792 16.3076 4.15437
1 43.6174 22.2498 49.552
1 0.721528 25.6262 26.6036
1 49.2086 31.565 25.8026
1 16.7652 34.6401 4.28875
1 31.0246 31.6513 24.0911
1 26.9285 47.0661 22.8557
1 44.758 18.9622 12.9084
1 20.0302 27.8767 8.41772
1 17.1666 0.498895 27.9621
1 40.1416 42.4788 38.0779
1 31.2941 24.7712 42.9064
1 38.6196 1.21301 25.7152
1 45.1311 31.0334 0.116813
1 18.0321 26.9266 13.5886
1 12.5506 14.3687 6.57695
1 38.7799 12.512 21.8734
1 32.7765 39.2225 5.20069
1 5.60023 16.5643 15.117
1 10.4185 49.1157 47.2697
1 39.8732 21.6565 33.9752
1 1.64412 35.8736 31.713
1 8.54848 13.2505 33.3797
1 13.4344 42.1685 1.25016
1 26.4625 32.632 5.34288
1 15.7415 2.24171 18.9307
1 42.4593 10.5441 38.7599
1 9.07161 0.598695 39.3087
1 35.0417 43.8388 29.8255
1 31.6632 12.2611 46.3285
1 48.7727 17.8362 18.3592
1 14.8614 18.9597 1.48664
1 7.06267 2.7806 3.29898
1 43.2417 3.12113 11.0248
1 20.3795 30.4728 2.95243
1 25.4177 37.3432 21.4346
1 37.2381 42.5556 25.7924
1 33.695 35.941 48.0342
1 13.9976 30.0661 5.62453
1 21.9066 38.9343 27.4345
1 4.90297 38.1805 4.0147
1 30.655 46.8981 4.06661
1 15.8413 37.2138 36.6937
1 1.84823 15.2261 39.0276
1 45.0676 12.3547 29.8079
1 19.2154 4.4882 46.1117
1 9.39101 34.3966 7.1912
1 41.1704 35.2696 17.4237
1 35.5401 31.7186 17.1613
1 44.7152 13.8272 34.0204
1 30.1203 19.2134 35.3093
1 10.4769 12.2186 6.78685
1 1.59957 7.16512 43.0694
1 3.50205 20.7171 3.40183
1 41.1812 13.125 36.4435
1 44.4807 27.9803 21.3775
1 38.2371 48.2378 45.398
1 26.1738 39.8847 46.074
1 34.626 46.0152 46.0387
1 18.1297 23.9469 2.61343
1 27.2808 14.741 9.17611
1 41.1345 34.6525 21.7258
1 27.5035 31.0625 9.33629
1 33.6735 11.0411 37.2529
1 0.319823 4.43186 37.5599
1 9.82461 4.22547 2.37417
1 44.472 1.18071 26.4525
1 24.9463 48.6606 4.77054
1 10.0708 35.5241 19.6668
1 38.2011 5.50225 32.8911
1 34.3798 10.3678 16.4993
1 33.4761 15.47 48.8033
1 33.5431 33.5801 17.5152
1 37.5448 6.70153 24.156
1 42.8255 23.5304 27.3841
1 17.2204 45.5765 29.2768
1 30.4928 24.8686 18.7551
1 39.8486 25.2935 29.7794
1 6.2144 24.0911 7.47125
1 37.5345 40.1035 40.3747
1 10.6783 4.63256 31.5056
1 4.45726 42.2587 34.0347
1 12.0799 22.5812 34.7725
1 41.8668 4.45576 14.6301
1 43.9523 34.7551 23.0907
1 5.51091 45.4719 17.4912
1 47.1694 11.5424 48.149
1 26.154 37.7835 12.4894
1 27.7067 46.2198 0.728021
1 8.99724 10.6919 48.202
1 34.2835 19.3436 36.1287
1 3.78186 45.304 11.3155
1 49.022 14.894 23.9111
1 45.4438 25.8441 39.9698
1 18.8799 17.4754 19.7507
1 7.7137 45.818 28.1903
1 19.1861 20.1892 0.735585
1 18.9587 18.2635 32.3063
1 26.0812 9.51299 11.926
1 22.4075 40.6205 14.4928
1 18.8314 9.34921 23.1198
1 33.6172 26.7201 42.4534
1 46.0676 36.6344 37.2191
1 40.269 40.3933 40.2988
1 14.6949 39.1367 29.7186
1 20.0318 30.3793 37.1452
1 35.8618 45.8371 28.251
1 3.73193 39.6566 31.0633
1 6.42108 43.3611 11.559
1 27.3408 14.8534 19.566
1 9.37479 34.5499 44.5275
1 38.7108 35.9263 22.224
1 27.6502 17.4003 19.7705
1 12.771 0.221747 49.0648
1 34.7545 22.8601 43.7201
1 4.66418 39.5337 39.3254
1 2.0237 13.6647 1.022
1 31.3957 33.6528 5.95291
1 40.1408 47.3186 49.4837
1 20.5101 29.6144 31.978
1 36.9298 47.8738 29.8876
1 38.7442 46.6984 40.6092
1 43.1116 14.1535 29.9552
1 41.2389 19.9326 2.39891
1 0.702428 4.29864 24.9814
1 13.1919 47.1127 2.65733
1 28.75 12.1913 44.3267
1 34.6457 0.727746 8.81879
1 24.6437 41.1541 18.104
1 12.822 33.1514 43.7864
1 2.21905 30.1976 22.335
1 47.4587 28.2171 3.05705
1 7.99689 29.5693 2.96971
1 25.5969 12.9117 37.1737
1 40.1591 36.9909 24.441
1 18.3278 47.8021 22.4166
1 28.3124 41.4674 13.5767
1 6.78464 46.6169 49.4777
1 18.6297 31.6166 13.7183
1 29.3219 49.842 43.9791
1 47.2994 10.8389 15.1968
1 49.8657 37.032 29.7671
1 27.2585 23.9628 43.6528
1 11.7021 41.9969 40.5152
1 41.0599 33.7585 6.11065
1 24.7357 24.0892 0.982595
1 0.780349 3.63583 44.0291
1 42.7387 2.71143 39.7098
1 30.8457 12.9958 9.85842
1 21.641 13.6282 6.18151
1 1.84639 3.89597 14.0017
1 18.7784 1.49057 23.5867
1 42.5415 46.6979 14.6424
1 34.0792 13.6208 20.3304
1 48.6088 3.05794 3.06264
1 12.1932 25.4478 12.0144
1 32.2598 30.7009 34.6887
1 20.7035 28.6138 34.478
1 19.9024 39.5907 14.7842
1 22.3008 13.4528 1.5335
1 35.4951 20.8041 19.195
1 9.77868 27.331 38.6919
1 27.7937 34.2048 40.3219
1 13.9533 4.62941 41.7913
1 15.3197 19.2041 30.4178
1 39.6851 1.7376 34.3042
1 12.2419 31.5428 41.807
1 17.5909 2.99219 20.7424
1 9.66797 9.70778 15.4247
1 46.9928 40.3638 44.1408
1 28.1172 18.9783 15.0912
1 12.226 31.6028 16.2546
1 40.8928 20.6592 49.209
1 44.0631 16.6374 14.0807
1 24.922 20.786 13.9026
1 35.7966 29.0305 0.325863
1 13.6521 19.6047 17.2645
1 40.7166 41.7427 19.6544
1 33.8939 35.9503 42.8548
1 35.7572 31.5497 41.8939
1 2.35153 2.00411 33.3002
1 15.2267 39.4836 48.6127
1 26.2953 47.612 48.5871
1 28.9417 41.5839 20.3073
1 27.2535 22.1802 40.2798
1 7.15911 3.64112 23.2701
1 5.30124 29.2348 19.1756
1 16.802 21.5945 19.0568
1 33.6013 41.3615 35.8232
1 47.5541 30.5271 36.8217
1 36.1597 41.2023 3.93598
1 43.09 21.8799 6.3426
1 2.06353 19.1068 41.0373
1 47.644 49.0288 11.9075
1 11.1294 27.8753 45.0577
1 41.623 7.32823 48.8677
1 41.6126 40.9273 25.8631
1 43.388 46.9146 49.2155
1 2.9398 19.1721 20.5788
1 6.66045 36.6484 32.974
1 46.2201 34.1909 34.2456
1 41.9194 9.81873 42.8686
1 36.0675 46.6502 7.22795
1 19.2241 44.3873 17.666
1 26.9551 44.8948 28.0942
1 3.0008 13.9473 11.1492
1 45.4076 14.8944 27.0993
1 29.4156 18.5109 44.1924
1 31.1554 26.6221 3.65867
1 38.0991 17.3753 18.8554
1 36.7915 21.216 40.5432
1 24.5465 32.3187 48.4927
1 29.7515 48.0752 35.7322
1 39.7704 42.2068 24.1758
1 6.97312 26.6977 39.2784
1 12.1522 2.72594 20.6099
1 30.3906 47.0375 47.0242
1 24.838 22.966 25.9123
1 40.5538 22.6117 3.08369
1 25.8361 10.9657 30.7425
1 3.71877 12.9716 43.0165
1 19.9576 46.2938 48.4668
1 47.3289 6.01441 26.347
1 29.2408 44.3209 37.2298
1 6.13785 23.1364 15.0557
1 33.6372 13.264 35.4085
1 40.3142 28.4974 37.4431
1 49.1741 33.6524 40.7782
1 12.4705 14.5224 23.2526
1 12.5834 48.2475 26.5486
1 30.3571 13.9842 38.4323
1 15.547 12.8627 12.9834
1 38.5393 21.5318 6.78713
1 19.7655 23.7826 36.1972
1 43.4694 48.1699 35.2889
1 10.2624 29.2633 19.4173
1 34.3583 43.9981 9.25406
1 16.2592 17.9164 3.41883
1 3.13669 9.69931 10.7122
1 24.7768 22.8473 44.6361
1 5.61889 0.749345 42.1292
1 36.2053 16.1233 44.8466
1 7.2743 15.3065 36.1956
1 18.8198 19.0463 3.11796
1 14.6545 0.96191 39.3752
1 41.1316 29.6421 21.7077
1 0.44572 25.6214 10.5244
1 35.5999 31.5002 1.31734
1 15.9049 2.06313 34.9111
1 20.0053 7.80105 49.0863
1 36.847 27.3207 17.8251
1 23.6676 28.5133 14.548
1 41.2016 41.9549 30.9579
1 38.5022 7.71712 33.8991
1 38.4788 45.0312 38.4149
1 4.44552 1.34874 27.0957
1 47.66 7.00112 33.471
1 43.3382 15.2936 40.2852
1 46.9886 15.7903 3.75295
1 7.06005 48.6697 39.5346
1 7.14464 5.08409 1.44808
1 41.435 38.947 38.2108
1 49.4917 15.895 42.4517
1 22.1732 12.1941 3.79175
1 6.73167 15.4231 12.2203
1 13.2112 44.3897 3.8125
1 48.9116 37.6311 37.6448
1 19.2541 7.55288 46.5518
1 14.4999 23.3997 34.7858
1 4.5886 25.7319 12.8931
1 23.8058 3.65473 2.83806
1 36.8305 2.76992 19.2113
1 36.222 28.392 13.0287
1 8.85076 44.4118 21.2905
1 11.1554 25.034 45.4801
1 4.47541 22.7021 12.3795
1 16.7398 5.60332 46.8462
1 20.448 25.2113 19.8901
1 30.2149 31.8245 44.6022
1 30.2167 43.2252 41.629
1 28.9229 28.3643 30.0408
1 42.6767 23.9173 4.50038
1 16.2639 42.2707 17.9607
1 32.042 31.8883 42.3601
1 32.947 30.6735 30.4075
1 36.812 0.214486 23.1527
1 40.0392 9.42874 1.65799
1 13.3534 27.4646 36.4234
1 30.8128 40.5484 30.0817
1 21.063 27.8867 39.3174
1 29.36 18.3136 7.53804
1 28.813 26.1325 10.1059
1 8.51897 20.5938 42.2582
1 3.19352 5.86116 12.8717
1 24.6486 27.7286 21.2707
1 6.86945 25.3086 11.3317
1 40.3326 14.8159 12.0952
1 6.22523 43.629 21.8557
1 41.679 31.3109 7.1796
1 14.8442 24.8993 43.6085
1 3.99761 30.1114 15.0135
1 20.9071 21.0395 18.7275
1 17.9561 29.4336 26.2385
1 29.1937 2.01346 30.276
1 22.5818 5.973 23.6131
1 2.11456 26.504 35.1743
1 17.9159 48.5041 18.3451
1 10.3182 31.3848 47.6335
1 0.709381 22.3432 38.0086
1 8.24784 7.33831 15.9329
1 2.25139 8.53663 30.0967
1 5.72402 5.14447 25.181
1 20.5506 13.3396 19.9538
1 5.36495 46.2417 23.0074
1 48.1721 44.1843 40.9338
1 24.1088 42.5095 20.4489
1 8.20503 10.3218 27.2099
1 3.18407 16.146 19.0494
1 42.717 48.2403 45.1218
1 9.27698 42.4771 16.9648
1 21.548 5.92426 28.2646
1 32.6597 34.1435 20.2087
1 24.0238 3.39962 34.8842
1 9.68138 48.2634 10.1576
1 2.39169 1.20367 14.0357
1 35.4472 12.0103 1.8802
1 3.61198 39.5871 45.2494
1 33.5728 46.1288 7.39571
1 19.9908 46.982 39.3423
1 15.3595 28.2467 28.5862
1 29.4967 48.1337 19.7126
1 43.9397 30.8508 47.636
1 36.7092 18.2017 6.90105
1 22.4105 35.4575 4.31395
1 39.0345 28.552 27.9801
1 29.978 20.602 11.2476
1 35.048 16.0819 10.0428
1 32.0428 37.2205 6.69228
1 13.795 38.4851 38.3513
1 46.912 44.207 23.7576
1 28.2696 7.13526 27.9159
1 32.6913 1.61171 15.1832
1 0.0692031 0.997131 40.9167
1 2.95675 1.67938 47.7961
1 28.6968 3.87269 33.2466
1 48.6854 12.0265 36.1638
1 17.8832 41.4402 27.8978
1 39.5713 10.5243 26.2589
1 16.2939 42.475 13.2083
1 2.35339 46.0658 39.1237
1 35.9648 4.05219 17.0498
1 33.3019 19.3531 11.1491
1 8.97016 48.759 15.4065
1 45.5625 17.0537 0.969694
1 5.43634 8.172 2.5252
1 33.6543 29.4372 26.2431
1 35.4797 49.2957 3.9583
1 10.3433 29.7053 7.54974
1 28.9283 33.9777 20.967
1 25.7595 43.7312 40.1013
1 11.7932 32.4054 1.71583
1 39.6317 32.8715 24.1143
1 37.5314 46.6316 11.4578
1 45.7919 21.4138 5.02866
1 47.2996 4.53618 10.207
1 31.7506 9.98433 31.3723
1 40.8447 38.8479 27.4849
1 19.1023 43.7256 48.5316
1 38.0198 17.6068 31.7695
1 2.94064 6.30548 47.3436
1 14.0132 33.6975 24.573
1 3.21097 4.92632 1.82436
1 45.9878 23.894 31.4456
1 42.8142 27.2381 25.3662
1 14.3675 45.9623 18.0788
1 37.4731 46.7741 47.5651
1 26.0862 6.50893 41.9478
1 48.0478 5.46068 23.7045
1 29.8123 9.07676 33.4151
1 18.4246 38.328 9.34806
1 26.4302 43.7255 23.9703
1 31.0358 0.535688 32.1943
1 4.49949 38.4314 14.0204
1 42.3566 29.3004 32.8157
1 38.7332 5.07358 29.7728
1 42.5167 12.8177 6.09431
1 41.9924 6.43762 24.3655
1 6.27364 0.969263 15.2132
1 36.8873 41.0584 27.7104
1 49.6426 6.89926 0.68278
1 15.2017 8.30159 2.66932
1 38.3992 35.0054 17.3786
1 40.9124 31.516 9.55879
1 8.33672 40.5153 47.9938
1 20.144 21.7676 8.27039
1 9.5402 18.2356 10.3489
1 5.93257 48.0966 3.27381
1 37.0047 45.4169 4.73983
1 6.09429 0.700468 31.0195
1 34.9904 24.7078 12.5628
1 47.9023 31.5099 28.45
1 30.2412 38.6518 42.3096
1 22.1401 19.6589 27.2825
1 9.69251 16.7824 27.2686
1 27.6104 22.664 11.9967
1 32.9998 41.2657 7.26952
1 42.2326 26.0379 48.0783
1 26.5475 31.9359 40.1482
1 2.46231 36.9275 49.223
1 30.461 6.10103 23.7411
1 14.8049 42.7594 41.3101
1 47.3426 4.71048 15.0379
1 29.7149 27.3552 32.6922
1 16.9936 13.1106 10.6214
1 32.9623 1.21357 25.279
1 9.83897 23.9426 12.3545
1 42.251 35.4533 14.3719
1 39.193 0.827685 17.9183
1 25.4508 49.0923 17.982
1 44.1458 48.9936 40.4148
1 44.2164 38.2114 18.2467
1 46.2541 24.963 47.5004
1 5.54891 25.2125 3.09014
1 48.1169 40.1357 17.2719
1 35.3872 28.9593 43.2177
1 35.3534 48.7267 32.0397
1 28.2482 20.2802 27.3094
1 15.5121 28.202 25.9151
1 11.1284 10.6991 0.312277
1 20.2313 43.1874 23.1566
1 15.9411 33.5923 32.6615
1 30.2731 17.605 41.4611
1 37.1516 1.31943 45.6173
1 29.4428 46.8954 33.0528
1 6.22049 33.6343 24.2639
1 17.6564 17.8451 30.0953
1 48.3432 17.6869 46.6694
1 37.976 46.3626 43.3164
1 49.2952 30.4111 21.5092
1 38.1675 6.25523 12.5971
1 11.7455 39.0262 46.4821
1 24.6184 14.0692 5.73462
1 18.3309 39.4343 23.9763
1 15.7205 36.7742 29.8202
1 14.6375 24.7565 32.1993
1 33.0642 3.27379 47.0051
1 1.51355 10.3569 8.32594
1 45.3677 20.3131 32.2867
1 47.101 32.2102 17.5676
1 36.9283 42.4625 21.4541
1 0.709195 33.3082 36.209
1 14.2588 29.1059 49.5752
1 40.1691 16.3719 21.355
1 27.311 9.44775 16.57
1 20.5472 45.6794 22.1342
1 32.7544 43.9442 21.5648
1 49.2615 21.6211 24.3621
1 18.0761 9.92456 45.5441
1 49.303 27.0655 8.12096
1 13.3974 14.405 -0.258891
1 5.02621 35.3763 28.6251
1 27.4091 35.1081 7.15908
1 46.4423 17.1235 10.5732
1 16.4042 29.9487 37.9186
1 44.1582 18.5735 47.5397
1 3.8308 28.32 21.2235
1 48.5213 30.9565 46.8007
1 36.0844 3.24534 40.6095
1 10.4 28.6976 47.8303
1 12.9253 21.3771 9.54054
1 39.6632 14.2412 38.5726
1 49.7175 43.6974 14.4249
1 29.731 1.0532 1.20839
1 19.8924 35.0761 2.94286
1 17.389 22.7699 5.13793
1 13.5759 7.24705 16.5439
1 23.0353 30.2107 49.6103
1 45.4706 2.04959 23.7809
1 26.6869 12.3229 23.5557
1 23.4507 11.9259 15.1275
1 17.5703 32.3052 49.1016
1 36.4838 18.1462 34.1095
1 41.6481 26.8724 21.1186
1 41.559 0.484019 27.6045
1 5.58411 35.5868 10.5945
1 36.4934 38.8366 25.998
1 49.109 11.8466 29.3059
1 19.3506 15.4742 40.1581
1 -0.113949 48.3841 44.3175
1 11.4922 10.9297 24.8264
1 47.2036 21.3056 49.2581
1 20.1979 48.1227 43.4414
1 29.0745 7.92415 3.46033
1 1.2577 28.2326 17.9915
1 12.0582 30.7538 33.5405
1 16.9858 3.53784 16.7371
1 15.7951 43.7312 35.3409
1 12.8499 13.2472 45.2374
1 29.3271 34.5849 9.12347
1 48.2965 9.37031 32.465
1 48.5975 37.488 18.6403
1 46.5625 10.7608 27.3948
1 19.0736 34.63 17.8559
1 11.0665 11.6939 32.0887
1 10.934 8.75974 32.7214
1 4.42362 37.0033 30.9511
1 36.5085 41.0031 35.8325
1 40.8181 23.3014 23.1365
1 22.3325 27.1044 22.4129
1 36.0058 6.87809 2.56002
1 49.4459 37.1831 34.7065
1 16.6451 43.8059 24.8113
1 45.8696 44.4737 7.31818
1 9.44722 18.8249 35.7176
1 33.5544 16.8206 25.9009
1 19.6736 7.90547 6.719
1 22.4485 37.1839 31.4161
1 31.4692 16.741 28.0429
1 4.10847 35.3696 45.3114
1 27.192 26.4411 16.3743
1 19.0175 10.589 34.8978
1 47.189 47.3899 1.99662
1 19.2228 39.6545 46.5314
1 20.4928 15.6521 1.39606
1 20.873 31.3067 25.942
1 43.0734 47.74 21.8929
1 38.3327 15.6391 15.7852
1 42.7886 47.6734 5.26715
1 47.9011 25.9118 38.8914
1 15.3664 9.28624 48.6158
1 17.571 2.13764 45.4735
1 25.2176 20.1939 37.33
1 33.4357 42.2211 1.86913
1 45.1317 40.773 33.0834
1 10.4566 18.6048 25.4919
1 46.7909 29.4894 17.6815
1 32.6357 27.1987 11.345
1 1.59704 15.3757 33.1879
1 30.7955 14.1812 12.2139
1 3.45111 41.5112 28.7238
1 6.72175 14.9263 7.93133
1 36.2912 41.1042 47.5648
1 30.5247 29.2817 41.5854
1 34.909 44.9695 15.9195
1 25.7291 45.4336 25.8623
1 47.584 2.3009 33.2613
1 9.63812 20.2751 19.4964
1 45.8126 26.1065 27.5316
1 36.9594 33.6784 42.2676
1 45.2976 26.7369 12.7698
1 46.6551 34.3479 38.3612
1 2.61435 45.8572 34.6388
1 11.569 8.46267 28.3709
1 6.30954 40.9675 35.5726
1 5.51542 42.7973 24.6735
1 1.20876 15.7703 15.0813
1 23.2096 0.985192 35.8421
1 48.6521 27.4096 23.6243
1 36.4014 13.5786 34.895
1 37.677 13.1891 15.2673
1 11.7716 38.6663 11.3529
1 16.1428 44.3245 39.535
1 32.7467 39.976 27.6023
1 4.82351 0.7128 49.6783
1 23.7661 41.7514 3.88999
1 46.4711 13.605 23.3548
1 9.11255 14.0325 22.6846
1 6.03233 47.986 37.3299
1 23.7204 7.79079 21.9604
1 6.20932 30.5793 40.6868
1 27.8831 25.0281 21.9796
1 44.6913 43.9084 44.3101
1 19.387 4.60389 19.8291
1 44.5793 22.7035 34.0585
1 44.2489 41.0396 10.9399
1 40.918 43.495 40.9688
1 29.5337 10.5735 49.9806
1 4.26003 28.1521 0.320899
1 32.2121 0.407157 7.82355
1 22.0599 8.44261 46.289
1 36.9651 0.513048 28.085
1 18.6438 48.8292 13.6571
1 19.9752 25.2671 44.6577
1 2.96539 14.3709 28.2821
1 30.8771 49.1243 24.7151
1 9.91427 30.5541 15.1131
1 14.0749 34.3769 5.89598
1 40.2919 44.9718 43.3748
1 8.07375 41.7107 12.9949
1 27.8155 46.0325 46.5134
1 5.18818 48.9538 7.75462
1 17.7459 46.3603 10.5918
1 42.0138 17.7782 19.3297
1 48.4549 9.60835 7.9351
1 29.0232 43.0924 24.0362
1 25.8268 11.776 16.4136