4096
 Atoms. Timestep: 800
1 4.20012 31.6148 17.3832
1 32.0791 14.785 11.6312
1 37.6727 0.634336 31.6959
1 23.7278 42.8307 10.9722
1 47.3342 13.0355 22.7112
1 16.2492 47.5284 40.1222
1 28.2723 37.0805 6.61644
1 34.8301 45.9486 15.4785
1 3.10236 46.8024 34.9298
1 38.1986 1.5352 26.4594
1 28.9598 15.6408 5.15155
1 39.565 45.3802 34.1138
1 14.0884 49.5635 6.35791
1 2.52284 17.6571 25.6639
1 33.065 29.9712 11.389
1 24.4365 6.61237 16.4768
1 36.613 6.64627 40.8388
1 4.18556 22.264 5.8268
1 14.5508 11.4685 19.0916
1 11.1252 23.228 8.05238
1 42.4202 11.7248 7.40561
1 13.293 26.4324 10.6474
1 3.88101 34.9898 39.9842
1 47.4066 18.5333 21.9439
1 14.0087 13.6763 44.647
1 0.0941918 35.1221 12.9771
1 3.92355 10.4881 16.097
1 16.5823 17.3609 22.7945
1 8.72379 10.7824 30.7911
1 3.38431 44.9009 45.4399
1 34.012 41.7439 45.2466
1 8.77814 5.0458 12.8775
1 36.4688 1.71221 9.62336
1 6.33395 26.5021 15.3011
1 28.4979 45.3341 44.8996
1 9.98556 41.6993 20.6436
1 16.5828 16.643 7.1944
1 17.391 29.4227 42.7341
1 3.41434 34.9932 12.0811
1 37.6621 12.1798 16.8505
1 28.3915 39.9414 28.9898
1 35.6362 30.3006 21.3445
1 2.97096 42.7046 12.7266
1 38.4261 38.5297 45.9493
1 6.05373 5.4772 11.7528
1 13.9764 26.5797 38.1755
1 39.5122 19.4879 27.2832
1 5.73557 34.5855 13.9317
1 5.20824 0.187956 23.1858
1 17.0841 38.1605 10.0286
1 11.6578 4.56105 24.9726
1 31.1478 10.743 45.3754
1 11.9828 14.6209 34.4531
1 9.7304 26.2033 44.6574
1 37.9824 21.3479 2.15923
1 33.1135 29.6447 30.5898
1 25.5953 18.3771 13.614
1 46.0621 47.6459 37.3005
1 33.3719 2.32381 48.8938
1 22.767 25.0448 11.0041
1 32.1299 31.5917 34.7948
1 9.40598 42.1942 36.5883
1 44.6733 41.9065 3.3265
1 10.6279 16.3269 44.1663
1 41.9086 1.03012 5.40933
1 3.25099 1.55734 17.135
1 38.9561 6.77444 45.0817
1 42.8046 9.23013 17.8401
1 20.9824 19.3841 39.4264
1 41.7777 21.4696 4.41427
1 27.3775 4.02121 30.1684
1 31.089 23.328 23.4868
1 15.6595 4.18136 25.5991
1 31.7531 37.3301 3.79415
1 29.1658 0.993045 23.6711
1 11.3588 3.05401 29.0827
1 44.1822 29.6455 7.1782
1 17.1101 35.1946 25.1135
1 28.6385 21.7593 18.8716
1 2.51053 26.4165 6.73055
1 36.3953 6.68281 44.6291
1 33.1652 4.92928 33.0509
1 15.3293 6.41128 10.3817
1 0.261451 48.8818 15.4133
1 30.347 16.0742 13.1384
1 21.4551 0.672096 37.6697
1 19.8241 43.5057 10.9658
1 8.62109 37.7238 4.56134
1 2.98524 17.124 12.444
1 41.5112 40.6066 32.6172
1 26.3424 2.63424 28.1377
1 8.58826 37.3838 10.9853
1 37.8633 2.78005 47.8743
1 30.856 4.84702 18.055
1 14.8478 13.1849 30.4816
1 47.5413 14.0761 15.6706
1 17.369 4.3477 33.1268
1 17.081 45.4654 48.1255
1 18.9487 4.47484 1.0138
1 7.69279 35.9472 42.0007
1 31.4876 22.3956 32.07
1 24.6597 17.8917 0.81585
1 22.4651 25.5206 5.32812
1 16.3106 36.868 19.0769
1 6.73488 3.80024 16.4948
1 39.0181 33.2737 22.2
1 45.3344 15.7841 7.63112
1 7.83572 5.76564 7.09882
1 36.6717 10.401 42.9134
1 9.62726 43.994 45.081
1 35.2106 39.3729 23.1296
1 19.9902 43.4262 21.111
1 29.628 33.3288 30.672
1 2.42535 35.3075 43.6717
1 29.1757 25.8306 9.85112
1 30.5307 21.852 9.10157
1 25.3676 26.6641 42.3463
1 42.3898 0.868395 32.5484
1 48.1447 25.3805 28.8376
1 20.9298 48.0089 10.8763
1 11.9062 23.2357 2.1492
1 34.8033 8.95546 14.609
1 41.8986 12.576 37.7612
1 22.0752 33.3196 3.85448
1 12.8665 1.78272 31.3558
1 43.1115 22.6475 23.3237
1 34.6144 37.2082 34.8516
1 0.732235 16.5453 10.7716
1 28.4561 2.02631 40.3632
1 43.5901 8.56349 0.694963
1 11.6852 37.6468 20.331
1 35.5655 26.9482 27.5075
1 17.4883 5.55145 3.23241
1 21.6127 41.1043 11.861
1 2.58092 5.10829 32.6255
1 45.2762 38.0622 9.27341
1 6.99305 18.3816 6.39227
1 20.1308 41.304 23.4549
1 40.5151 3.9859 35.7777
1 0.687409 37.7973 19.5048
1 19.8317 13.9711 40.2698
1 28.9351 35.172 28.7245
1 18.3624 13.6618 47.9707
1 27.7697 0.695427 11.6079
1 46.3217 29.9688 21.1215
1 49.4349 44.1475 17.4204
1 3.65863 9.66789 5.35175
1 39.361 47.3722 40.3889
1 15.9081 21.0275 46.1023
1 45.6411 28.3593 8.78094
1 15.8063 22.7078 5.46004
1 37.7354 48.7778 18.8753
1 12.7132 20.1497 24.3098
1 4.36462 45.283 29.1952
1 4.97783 27.62 19.5633
1 46.4127 48.2727 9.20434
1 36.8573 9.5904 33.1062
1 19.3349 7.57191 21.7351
1 34.8443 47.8535 3.19426
1 38.4879 16.578 48.8305
1 31.2852 49.2843 44.545
1 14.5762 4.78741 5.716
1 47.4577 15.4531 34.0034
1 31.6641 17.7446 5.93257
1 37.3463 4.58016 10.7301
1 0.177356 3.96472 4.46223
1 29.8173 13.5176 14.0503
1 40.407 31.2196 23.0892
1 34.4782 38.886 12.3286
1 21.2234 10.4784 47.0282
1 35.7037 3.26287 21.4581
1 33.8488 34.9561 42.5118
1 10.16 6.43548 26.1278
1 29.5453 27.2585 42.5077
1 31.5409 37.8764 15.15
1 22.3078 39.4685 1.747
1 8.42476 10.6608 5.04709
1 26.2432 47.5659 28.0952
1 19.7538 30.0886 31.1515
1 9.80293 33.8086 39.0166
1 47.2556 22.196 24.6898
1 11.4336 7.92383 6.57565
1 32.7155 37.7732 28.3764
1 13.5263 25.4631 48.552
1 12.2482 48.0811 36.844
1 30.8797 21.0551 34.3306
1 24.4456 10.8356 33.7275
1 6.81662 31.6277 16.8355
1 32.7587 46.7935 41.1014
1 8.99627 49.7628 6.67219
1 49.4064 34.0102 38.7872
1 14.5501 30.9794 36.6239
1 30.416 31.7664 42.0676
1 9.08677 46.2433 1.704
1 48.5419 8.93299 18.9327
1 27.2972 0.262987 42.8487
1 46.1401 4.32807 9.12549
1 34.8183 25.8699 15.5803
1 35.1077 23.5692 26.6117
1 1.73206 18.9657 23.5553
1 20.3367 13.434 22.6294
1 16.1196 9.81991 5.05634
1 6.59254 16.2372 15.3245
1 45.2678 11.2998 18.3829
1 44.3512 10.0775 45.1364
1 13.5471 44.5667 14.9777
1 21.9459 16.0757 6.29582
1 43.2184 35.7237 9.34328
1 24.817 0.258124 8.97923
1 25.3424 27.2204 25.5063
1 39.988 43.2897 25.6651
1 40.6779 46.7643 22.9798
1 38.0419 20.5133 36.7455
1 6.64516 43.8142 47.5199
1 19.5357 39.4065 10.8018
1 0.519394 6.89372 20.0416
1 12.4414 31.894 27.5724
1 30.7065 37.0048 22.2703
1 6.16284 9.95509 6.29791
1 1.26749 7.2866 2.35869
1 21.5654 44.5275 16.9185
1 8.35592 44.1852 4.70957
1 29.3191 12.3451 2.09522
1 17.5279 4.85008 43.0325
1 29.2075 30.9097 15.4255
1 21.5637 19.2606 7.88731
1 29.6209 24.3643 30.9332
1 -0.0860923 15.4882 16.7247
1 18.0931 15.8318 2.49467
1 22.1025 42.845 48.7398
1 25.961 24.6887 10.1655
1 25.7547 39.1926 11.9602
1 20.5302 22.6964 14.2782
1 22.8248 6.53761 24.862
1 33.3913 13.3353 41.2702
1 30.7683 39.7955 19.1544
1 9.63391 16.9626 30.1058
1 1.94521 7.91287 6.66736
1 2.32156 24.003 5.30351
1 45.7149 28.1642 43.702
1 35.8817 22.5984 12.55
1 19.9049 39.9021 40.6718
1 26.4754 21.2029 33.3882
1 48.0536 11.3346 12.5413
1 13.3509 42.2485 46.0831
1 6.49229 14.413 21.6818
1 18.6101 36.4366 20.6783
1 17.6173 33.6437 46.231
1 38.0706 4.41572 5.96668
1 24.3657 7.35611 22.844
1 39.0896 38.6865 -0.0955113
1 19.742 18.7285 45.92
1 33.7929 46.2335 20.401
1 22.2373 14.8544 38.7956
1 6.81715 16.8159 19.9032
1 8.7535 39.7763 0.264367
1 43.1837 17.0937 20.9551
1 49.0728 11.485 8.21216
1 43.606 25.4049 40.1889
1 48.6472 46.6292 40.1698
1 18.9897 13.7041 19.9985
1 14.5693 13.7953 3.62744
1 36.0549 46.741 37.0004
1 46.987 12.8655 41.1331
1 44.1167 46.464 13.9955
1 4.74372 48.1905 18.9161
1 25.5393 16.524 8.61748
1 19.3629 37.7348 38.833
1 14.9056 44.8307 10.7
1 42.4231 29.9697 33.1571
1 12.4138 39.8371 24.6277
1 34.1165 21.7708 24.7024
1 40.5824 40.1489 3.36738
1 11.8079 19.7701 8.63577
1 13.3329 30.4488 1.69077
1 0.445528 27.7301 5.48898
1 0.884424 40.0315 34.7993
1 31.3186 17.2636 37.7198
1 33.2308 46.1894 45.449
1 0.601111 46.982 38.0989
1 20.4376 12.0139 1.79667
1 14.6961 27.6279 13.6862
1 47.9915 3.09508 44.9926
1 14.7777 23.482 26.6127
1 16.8853 1.95739 13.7745
1 15.1117 19.7032 10.7665
1 11.6461 13.9979 1.50644
1 46.2507 42.3824 27.5898
1 49.5984 31.7296 18.6937
1 27.5594 26.6692 28.2559
1 39.8346 19.0542 38.7213
1 1.67235 22.5517 47.0896
1 40.9746 20.9369 35.9559
1 5.85063 40.9751 42.707
1 38.0182 13.7177 41.1893
1 34.0927 30.2033 7.87164
1 41.0302 10.8579 9.65461
1 31.9237 28.8208 42.5342
1 42.7058 18.982 25.3234
1 24.5576 10.2827 43.1752
1 5.16005 37.7704 7.50463
1 13.2252 32.0902 10.2596
1 28.2717 46.3435 19.4689
1 22.4393 10.1614 24.2739
1 0.30287 4.49833 41.059
1 40.1147 20.8088 8.71284
1 10.9106 5.50851 19.8033
1 45.2434 8.13436 15.0109
1 7.11848 9.46803 14.2206
1 14.9805 25.5647 40.7489
1 12.2709 32.1022 32.5728
1 40.6824 18.4004 47.5569
1 4.71231 45.0285 39.0004
1 42.6347 47.7327 12.014
1 42.0274 30.1363 26.4783
1 43.2884 29.1113 46.4916
1 33.2301 6.22697 46.9042
1 4.4733 16.0259 8.35505
1 34.7728 11.1512 39.543
1 19.4148 3.26467 27.9617
1 46.8671 17.0148 9.35054
1 34.2456 24.2491 5.30121
1 40.5993 30.2292 38.7139
1 8.49263 42.8669 29.9472
1 10.2902 48.3806 27.5922
1 0.640727 29.6891 39.6102
1 3.19022 36.474 35.802
1 2.32316 14.5821 41.0375
1 40.5171 14.9552 8.88303
1 48.7212 3.16037 1.94571
1 32.7458 35.4679 23.173
1 18.4057 14.6436 13.0655
1 15.4344 37.5355 23.1745
1 29.5474 45.9502 27.8151
1 43.1334 16.9017 6.72963
1 30.9207 41.2265 11.9673
1 40.6948 36.9043 32.3957
1 45.539 1.21256 48.2369
1 4.75347 42.1518 32.62
1 3.00902 6.8187 35.3431
1 13.1968 3.98841 27.0522
1 43.1489 23.6184 35.4923
1 2.08464 25.7293 43.5838
1 44.705 4.79944 37.669
1 37.5712 13.0772 36.855
1 10.2219 16.0497 12.7604
1 47.9131 12.3077 26.1729
1 47.4168 5.08468 41.2547
1 27.7448 26.4634 40.3877
1 32.5469 18.0807 9.04415
1 16.8001 4.35947 6.94541
1 39.3659 17.4518 1.98199
1 47.3195 33.6778 9.26566
1 18.3188 19.0165 43.5224
1 3.02241 30.4722 38.7898
1 40.5458 25.9922 30.6429
1 3.17565 12.2487 32.1772
1 6.92599 7.86229 8.19936
1 1.27863 8.1818 22.3629
1 18.6887 2.85494 23.6577
1 18.0624 22.2037 18.303
1 0.699219 38.3486 32.7189
1 22.8877 7.19251 2.4268
1 14.6352 24.8768 44.5677
1 48.2336 36.7769 24.9
1 13.8646 21.4134 38.6474
1 14.4122 5.96352 13.9743
1 30.5695 14.2764 21.8631
1 13.0001 15.3636 20.7171
1 5.3353 14.6985 29.1
1 46.8759 0.664592 15.3402
1 40.0425 12.1119 45.1451
1 12.9612 1.59736 15.9504
1 27.1021 14.2194 47.8288
1 47.7 36.055 39.0866
1 40.0389 37.6909 21.2136
1 6.23845 37.0672 12.7643
1 35.272 37.1579 2.88803
1 17.4313 10.0804 7.5351
1 11.0358 19.3893 43.104
1 12.2344 14.1197 29.0282
1 1.21319 42.141 43.6726
1 48.7409 36.5572 33.8162
1 2.47841 46.9114 11.6165
1 34.7702 45.4886 49.6938
1 7.96986 47.21 39.541
1 17.9822 21.0963 8.20405
1 36.5368 12.463 27.7176
1 17.2797 8.62581 36.9243
1 29.3709 45.277 10.8276
1 10.5585 14.1293 45.7673
1 12.4448 18.4649 17.2825
1 4.20852 30.2376 23.8592
1 41.6953 25.5089 28.0382
1 49.4138 48.2859 42.2516
1 20.3439 5.43795 31.3716
1 20.1682 35.1895 33.127
1 21.0884 25.2345 48.9533
1 48.1088 15.9047 49.683
1 42.4767 10.8086 41.6309
1 40.8666 34.9743 48.9474
1 9.84766 15.7387 24.2835
1 26.2095 5.4072 21.2157
1 18.4644 25.7723 47.3707
1 3.43212 44.2009 2.53336
1 10.1104 23.4676 37.5195
1 33.2118 13.4331 26.5698
1 38.8943 41.0626 1.42322
1 16.257 17.4833 18.2638
1 19.1672 22.7746 35.2525
1 20.7091 29.7287 8.21402
1 5.87854 47.6986 40.9935
1 17.7012 41.585 11.302
1 11.1761 43.919 37.0756
1 37.2307 48.7938 25.7209
1 18.9237 1.30063 36.5443
1 32.0657 34.1982 25.6117
1 15.0868 23.0803 41.9038
1 1.35493 36.8096 5.03906
1 2.65975 9.69265 48.9087
1 13.5836 7.10418 21.4076
1 32.5275 4.65503 38.6789
1 27.7067 17.9103 27.4949
1 1.77277 6.0165 29.0475
1 23.5283 26.0003 26.8359
1 25.4882 3.66435 1.18633
1 11.3049 11.4231 45.7345
1 12.6479 33.0596 35.2706
1 9.52263 41.3349 23.1927
1 49.0936 20.8665 22.281
1 27.0371 9.28784 26.0651
1 35.1073 5.1242 28.9324
1 24.82 43.1639 31.8756
1 39.5278 32.0673 4.12833
1 36.0918 19.5302 16.5222
1 13.3088 1.90115 3.81334
1 24.7192 23.8108 28.4504
1 35.1078 36.7361 22.4761
1 30.9009 2.7528 32.615
1 15.7565 21.69 22.5384
1 3.03646 41.3102 28.5393
1 39.007 8.79481 5.742
1 45.4534 11.6431 4.95648
1 27.2153 11.3199 44.174
1 47.1016 40.9285 39.1965
1 36.0506 17.0042 28.3685
1 49.2251 28.6896 21.947
1 6.12552 31.8703 10.1019
1 20.8319 8.25458 3.68719
1 27.8439 28.5571 15.7254
1 42.4331 2.32718 19.664
1 23.9685 38.73 37.9441
1 11.2993 34.3673 31.059
1 16.672 11.0489 38.9051
1 8.14658 39.4373 27.2312
1 31.9568 12.6241 19.9437
1 19.7216 30.3982 16.1347
1 12.5469 5.21269 15.6859
1 8.26178 11.9215 8.68165
1 34.0612 30.4982 24.5598
1 44.4094 37.2497 40.4284
1 3.53177 23.3234 32.7731
1 8.12627 15.9437 7.30029
1 8.46409 5.50981 30.2812
1 20.1801 12.9871 14.8632
1 32.379 44.7256 27.2404
1 24.9898 19.0722 23.0791
1 1.05813 47.8011 4.63148
1 18.9562 48.0645 6.10381
1 44.8038 33.7667 47.7358
1 36.6297 32.081 31.7295
1 27.0165 37.5223 44.6817
1 7.79429 30.3605 3.63585
1 25.3957 23.4615 49.4419
1 19.3276 16.4677 25.3942
1 42.8493 13.1114 4.72246
1 11.8703 29.4616 16.9579
1 43.6698 2.99384 33.3498
1 1.63493 45.921 17.4897
1 5.58233 8.14058 35.6271
1 36.3563 10.3234 46.7342
1 47.9019 20.5157 10.8325
1 34.6583 9.34835 11.2329
1 7.09592 2.01946 40.0467
1 1.01691 2.92606 32.8347
1 19.3959 32.1267 38.6726
1 43.5399 38.7029 25.7741
1 15.3252 8.20817 47.7925
1 27.0858 46.8215 21.9905
1 43.3853 30.1619 38.6576
1 8.57144 38.4963 23.678
1 14.8139 14.4994 37.5598
1 10.1955 33.3799 14.6639
1 22.4893 6.1775 47.6861
1 17.1317 27.7969 46.1229
1 12.3123 29.5584 28.8139
1 13.1941 48.3501 34.3187
1 1.7747 41.9753 39.5934
1 48.2667 11.1337 31.9774
1 37.2888 47.1272 42.9183
1 28.1899 49.8782 27.5603
1 7.99155 34.4471 15.8785
1 14.4424 12.8371 7.63309
1 19.2312 41.8691 38.762
1 28.9925 41.3688 23.2785
1 3.1201 32.0101 47.1935
1 4.36467 37.3307 2.35331
1 0.0325723 1.21139 48.3099
1 11.7373 43.2825 43.7052
1 14.7763 36.7165 28.9469
1 17.376 46.3172 16.7388
1 17.2946 2.53408 29.1285
1 47.1069 15.694 44.2708
1 7.99652 42.8139 34.1135
1 44.0269 13.517 29.3886
1 1.34317 5.88326 43.7389
1 18.2536 25.9165 38.4412
1 14.5595 45.3752 31.4752
1 46.7119 5.22444 44.1904
1 3.35001 3.79586 47.0917
1 39.8487 25.7248 0.369757
1 21.9318 15.2087 21.2667
1 34.9501 23.8107 17.5716
1 19.1761 22.9391 41.4441
1 4.9062 1.3983 27.6038
1 38.4735 38.5253 9.70756
1 23.2421 33.7853 8.14867
1 44.2887 16.1913 28.5898
1 45.9838 9.80494 38.6118
1 38.5238 22.8442 13.7033
1 37.556 42.3985 30.7142
1 27.0487 32.632 2.56573
1 30.9593 30.4248 39.6813
1 19.5232 40.905 45.5567
1 43.3564 24.71 7.12523
1 38.211 40.2877 6.53747
1 33.4565 6.26148 42.5811
1 48.4163 38.6584 37.9522
1 31.6001 18.8646 16.7954
1 13.7457 6.59875 28.3842
1 39.5559 33.6098 37.3823
1 4.3459 4.69491 39.9539
1 6.59437 44.0994 19.9336
1 37.1886 46.7754 6.64618
1 6.12601 7.04986 27.4503
1 22.1343 32.4847 31.0829
1 39.2441 25.0242 3.99861
1 0.771792 11.7473 33.4565
1 0.242596 15.036 26.8184
1 7.21705 41.1941 25.2232
1 40.6707 16.5164 30.6118
1 25.8362 1.81381 25.425
1 4.87683 25.7628 44.097
1 5.99549 27.5394 11.3923
1 12.0191 45.3663 22.4261
1 7.25338 45.8783 21.7723
1 41.509 2.57447 13.5192
1 5.74273 6.92003 4.95823
1 3.99977 30.9564 5.83276
1 7.01773 4.68228 40.9201
1 36.4809 49.5742 1.58252
1 49.5613 13.7676 47
1 42.5316 25.9677 42.7466
1 32.6366 25.1761 24.8764
1 37.0324 32.3609 20.4885
1 4.84736 30.3546 48.886
1 45.7518 31.5025 14.0366
1 25.8259 45.3597 42.6144
1 1.72445 1.73608 20.5342
1 30.0818 15.788 35.5363
1 42.1483 5.15718 25.0812
1 23.704 14.524 41.2565
1 14.8302 0.705613 29.7589
1 13.1864 22.5415 21.5528
1 1.85049 3.41496 24.927
1 31.5386 37.5531 17.7169
1 10.1334 3.29414 36.8896
1 8.58115 32.7699 3.01609
1 45.5101 1.09573 1.31301
1 44.4641 0.0216993 36.0705
1 41.5977 39.6726 48.5056
1 40.3261 12.2962 0.148372
1 12.3205 20.229 48.6552
1 0.276204 32.5676 30.3897
1 12.9334 20.3418 12.4963
1 24.8336 45.2659 6.01629
1 4.89393 39.3337 40.8725
1 14.2166 46.2953 37.8883
1 28.4711 12.4912 7.0127
1 15.6218 6.03005 39.4947
1 7.78097 22.2921 12.6606
1 3.70748 8.13278 1.28629
1 25.7637 24.9496 2.6237
1 36.5336 35.3705 43.1663
1 38.4529 28.5448 17.945
1 11.4716 45.1631 13.4711
1 46.0724 13.8594 20.6729
1 49.0723 44.6571 26.1227
1 14.7298 34.007 24.548
1 45.1152 8.83185 11.1262
1 37.3168 23.7181 19.0183
1 28.5365 27.874 23.4721
1 19.8414 15.5916 7.88522
1 10.1972 49.3026 45.4705
1 16.885 47.4647 4.84907
1 41.6876 0.0320285 14.6546
1 13.3743 30.3356 24.0138
1 37.5549 3.86409 25.5151
1 13.9589 46.9256 45.2072
1 42.7651 34.7438 34.2446
1 4.93103 20.5188 38.8841
1 29.8828 36.4224 37.5461
1 2.24851 14.2382 13.6831
1 42.1035 5.27145 47.9235
1 14.7133 37.0925 47.709
1 13.6395 39.1935 11.9995
1 32.8736 5.23514 10.3353
1 46.0491 7.05591 39.5589
1 4.28207 43.4929 27.3999
1 19.6426 32.1903 29.376
1 5.38295 46.9429 0.0896972
1 31.5137 9.73732 3.92377
1 18.6695 44.2336 43.2026
1 36.9447 8.76594 30.5449
1 9.88439 42.6735 32.0889
1 46.4494 6.37015 22.7294
1 31.5983 29.8459 9.19618
1 3.12854 16.145 47.0329
1 46.2126 25.556 3.53407
1 26.663 48.2749 12.931
1 2.63803 46.2063 30.9839
1 22.7343 14.4126 32.158
1 12.678 18.792 2.84107
1 10.4625 4.99139 10.596
1 41.309 45.8963 43.369
1 46.5777 47.5604 43.182
1 24.6139 21.6758 5.73787
1 4.84368 40.5349 30.3402
1 46.8031 46.8758 17.793
1 16.0648 27.1343 43.7662
1 2.85577 41.5836 48.9221
1 4.16256 20.1856 15.145
1 44.546 27.7746 38.9227
1 8.26073 1.82779 26.4085
1 47.9133 46.6859 15.2602
1 46.1153 7.75459 2.04216
1 24.7031 34.9743 39.1232
1 8.06836 7.25965 24.7333
1 46.4554 18.7212 2.67936
1 16.0281 40.7765 49.8236
1 39.6981 19.2707 6.13121
1 9.92672 3.67564 43.0082
1 9.03662 21.1106 19.029
1 25.6617 13.8673 0.940598
1 33.1534 28.4795 40.2532
1 42.1705 12.3795 25.2659
1 7.36593 37.2412 37.9192
1 39.5474 12.0137 23.9039
1 1.93301 7.76994 32.1002
1 19.7107 46.8789 20.3388
1 37.9671 44.7551 25.1134
1 10.2714 15.3178 21.2896
1 5.12945 15.8684 37.1544
1 41.7809 9.11096 2.76652
1 8.73727 29.7868 31.513
1 31.8008 40.3927 38.205
1 26.0836 40.5506 26.1345
1 15.3126 49.7783 9.76776
1 33.8603 8.68772 34.1844
1 49.0668 42.6711 39.1619
1 27.2349 6.47639 29.2286
1 25.2045 35.4679 46.2711
1 8.52005 12.9101 3.59827
1 14.7889 12.5804 40.6923
1 11.0953 47.0438 3.11379
1 31.8752 34.0727 32.784
1 16.6666 11.3317 32.8587
1 27.2029 42.8834 21.4271
1 28.4434 33.7865 33.067
1 13.8001 43.5951 21.7629
1 25.4326 6.86432 8.90902
1 15.2076 19.2493 1.49359
1 46.2181 40.6357 16.3508
1 39.0141 31.214 18.637
1 12.4923 22.9264 25.3835
1 43.2081 30.1532 1.05651
1 47.8115 20.3166 43.9444
1 3.14553 8.13609 14.5233
1 33.1827 44.3099 37.9723
1 20.6526 48.0939 16.8827
1 27.7231 39.5257 35.4704
1 41.7604 39.8559 20.9386
1 23.4233 36.6588 7.08845
1 25.8314 12.8841 40.0442
1 25.3617 35.1301 12.3339
1 5.01485 11.8678 34.5048
1 9.3747 43.9727 48.0031
1 10.1358 18.287 4.47642
1 8.44381 34.1942 18.6697
1 1.06953 29.931 9.78842
1 9.01375 49.779 17.8487
1 43.2319 43.7464 21.8
1 49.5062 7.95763 5.20392
1 41.5046 31.2655 18.8223
1 12.0289 25.2504 36.6533
1 21.7891 22.0666 2.26669
1 24.5516 4.57031 12.4612
1 22.9234 18.5576 5.33088
1 10.0258 44.5234 9.00001
1 5.40085 43.901 13.2998
1 28.299 22.4229 7.82695
1 49.0291 22.9067 17.1524
1 32.9591 27.2498 33.6017
1 21.9702 40.2547 48.1245
1 17.8834 19.5947 47.3835
1 0.41555 7.49582 13.2894
1 30.6967 9.17275 34.5407
1 21.6732 1.84986 14.8123
1 47.5764 12.9412 18.3308
1 40.2047 36.5371 14.9018
1 21.2545 24.0918 33.9068
1 42.9298 22.2691 6.58787
1 35.7144 5.91651 17.6266
1 34.0024 19.3337 44.8768
1 0.55266 17.7536 28.096
1 0.402993 48.2592 10.7003
1 9.24406 28.1663 42.3611
1 5.99712 32.0709 7.03367
1 20.1866 9.24497 8.23449
1 33.2181 13.5381 17.705
1 9.3793 23.5439 32.8772
1 18.7755 44.331 32.2224
1 47.2711 36.4157 16.0963
1 48.3269 5.2365 20.6886
1 26.6727 34.0134 41.441
1 4.9421 4.0319 36.7301
1 32.9533 31.488 46.3406
1 0.177452 26.1471 38.5667
1 21.92 48.1687 0.361804
1 22.7988 49.0794 24.6626
1 43.5244 2.75681 41.1214
1 31.5896 35.3865 28.2494
1 1.90308 18.4077 37.1482
1 29.9914 25.3185 17.1404
1 34.89 27.3061 36.643
1 36.7031 29.6553 2.27438
1 14.8096 25.1495 12.6215
1 24.4806 29.5703 35.6188
1 32.1061 14.1102 48.6675
1 16.4555 1.34291 26.1293
1 36.8659 29.4083 16.0614
1 1.27457 11.9865 6.51701
1 6.03493 48.8265 11.2344
1 4.23514 30.3295 19.8994
1 25.5891 1.11097 36.0041
1 10.5569 5.20893 7.77827
1 25.9011 31.5736 42.434
1 21.1675 4.59635 6.27959
1 32.2482 48.0553 2.33702
1 19.1056 12.0229 5.33538
1 27.5411 4.23274 16.821
1 13.5219 21.6944 9.10491
1 9.28846 6.29972 22.1375
1 37.9831 6.86344 23.2909
1 38.4217 9.57325 13.4419
1 21.3638 33.586 12.6199
1 44.285 17.7719 16.7486
1 19.2249 26.8577 0.698779
1 38.5423 21.1407 16.2703
1 25.8557 13.0275 26.0962
1 19.4093 3.15538 39.3451
1 45.3293 33.4777 19.3667
1 25.9096 44.9645 3.78831
1 9.03578 41.2012 45.515
1 9.19666 35.5582 22.0747
1 41.962 28.2105 6.70419
1 6.68824 34.2183 0.881295
1 48.6828 7.22221 24.2561
1 7.83558 40.7654 9.59555
1 30.009 29.2184 46.3544
1 39.3508 44.0545 9.21391
1 14.9701 32.5986 2.69909
1 9.6355 26.65 4.02558
1 22.3126 21.1515 18.8142
1 35.5584 12.0751 11.4137
1 6.0114 2.70331 20.71
1 42.2774 23.1038 1.87711
1 4.26966 25.3903 11.0772
1 47.2915 28.3699 49.5588
1 22.8349 44.5757 30.5945
1 44.2037 18.131 44.342
1 35.3663 41.7618 48.6561
1 0.178136 22.7068 25.0913
1 11.913 47.7558 6.77975
1 32.8791 30.318 19.8983
1 42.1462 37.788 38.8637
1 47.733 18.033 34.2266
1 7.57841 44.8085 43.8882
1 19.1979 20.0572 21.2066
1 6.68089 49.4249 16.5338
1 13.4196 11.205 32.1271
1 38.423 4.13057 14.3715
1 36.5881 16.4146 5.03198
1 12.6578 3.06179 11.6525
1 6.70124 5.40556 3.06245
1 49.742 13.0914 40.7975
1 5.86337 6.01121 33.1231
1 6.14711 9.06562 48.5737
1 22.9572 37.0257 19.9864
1 36.577 23.3312 0.857959
1 15.2008 32.4907 7.36271
1 39.4802 28.5271 5.37466
1 40.4887 14.0629 43.3211
1 33.7413 20.6282 1.54581
1 28.6626 33.9317 10.0731
1 0.612242 29.0027 49.3695
1 2.37427 15.0568 44.2091
1 45.0598 33.5182 27.5375
1 27.7884 20.3048 3.15288
1 25.282 29.4955 16.0882
1 10.7919 48.089 9.55226
1 9.51457 35.9523 34.4468
1 1.84742 35.9816 29.7476
1 17.9755 34.2963 13.8229
1 30.0473 14.3415 31.6999
1 21.5452 14.2101 34.7514
1 12.11 5.59 48.1643
1 14.2972 33.5017 44.3655
1 1.40479 36.0473 39.8806
1 6.61008 48.4229 21.321
1 39.1758 18.4116 43.395
1 48.4573 10.0716 24.6887
1 44.9812 24.678 24.4767
1 11.5069 47.4278 42.9023
1 10.9706 33.6916 1.58838
1 24.3732 34.0362 21.9802
1 12.4904 11.2734 43.1907
1 33.2749 39.0273 0.276193
1 3.10194 40.8115 5.26044
1 8.94573 18.0564 23.5577
1 4.72102 43.9743 8.61546
1 44.8016 23.5851 0.737678
1 42.936 26.5543 24.7052
1 0.385635 45.123 30.4163
1 46.5419 31.263 27.9386
1 37.8272 36.6168 32.3591
1 38.7019 9.80918 38.1911
1 32.2756 32.8113 43.6342
1 7.47782 22.1441 3.06357
1 38.2468 39.5505 32.2116
1 38.1324 38.9053 38.0456
1 10.3456 45.6056 6.19485
1 5.88493 47.8078 14.5601
1 30.8557 27.0804 1.18434
1 7.08165 2.82551 3.1482
1 17.5871 42.2138 8.35981
1 6.7414 46.2902 37.2829
1 2.42171 6.14437 46.1492
1 48.7744 7.33833 9.20159
1 0.207396 10.2699 0.428219
1 15.5929 3.25181 3.4708
1 23.2971 32.6325 24.661
1 23.1542 19.0977 43.3875
1 43.5758 42.7647 47.8019
1 12.6772 6.15677 39.6385
1 8.25415 25.5298 24.9878
1 36.6609 34.9044 6.13042
1 47.4081 28.9284 45.9767
1 20.7675 30.1521 40.6024
1 17.4706 1.02771 47.5575
1 6.76335 27.7741 39.5039
1 5.31178 23.5562 9.29258
1 3.53201 21.8083 1.10244
1 47.5794 24.9185 17.8189
1 27.2543 20.4879 14.7268
1 37.6695 11.0998 40.4037
1 3.37571 38.4328 31.4756
1 14.0299 27.0293 21.9454
1 16.6488 8.3892 21.2584
1 39.1775 29.5746 36.6796
1 42.0696 33.3678 4.14723
1 10.2619 46.2636 20.3636
1 38.6962 22.9367 21.7669
1 36.9589 7.47413 12.1027
1 19.4847 39.6201 19.032
1 33.7014 29.2273 47.5614
1 1.99686 27.6998 45.2953
1 48.7653 35.7735 8.70798
1 15.3038 28.3335 9.52983
1 30.0717 36.4408 42.4607
1 2.96995 29.9946 15.5852
1 34.4763 14.451 30.8144
1 1.15413 14.7916 6.43541
1 3.2107 21.5533 10.8958
1 47.8048 38.812 14.8123
1 43.962 22.9989 42.7836
1 18.1638 5.22217 46.2458
1 7.64999 28.0281 13.5882
1 14.2509 2.55148 9.6393
1 24.242 33.63 18.8347
1 48.63 48.4938 33.8164
1 34.3847 41.4915 13.0789
1 5.2313 36.5851 41.733
1 3.04361 7.12023 24.1629
1 44.8672 41.8403 20.776
1 19.9665 42.1304 28.5359
1 19.1081 25.723 28.8774
1 27.8798 31.2275 44.4685
1 42.9486 0.667136 21.7281
1 15.1907 49.129 18.3256
1 46.2383 31.1755 30.7136
1 49.3167 24.8562 20.876
1 6.4039 19.0727 23.5528
1 44.064 36.6171 3.83866
1 7.70524 46.6719 31.2874
1 33.09 16.1359 27.4993
1 5.40074 31.4391 29.8823
1 0.248689 24.3141 44.7888
1 1.74775 16.9105 39.6808
1 24.835 33.7915 0.894334
1 44.6811 43.4504 35.8678
1 16.0385 45.4216 41.7466
1 13.2636 10.2946 47.4069
1 39.3253 7.19199 41.1164
1 24.4308 39.5379 47.5886
1 32.3322 10.0908 12.5207
1 9.32783 32.9794 7.59162
1 49.6527 43.8256 32.6866
1 4.84627 11.6412 11.0955
1 12.5183 38.6077 1.23218
1 12.5542 6.07353 11.8117
1 9.7905 34.4149 10.9614
1 45.4706 21.8796 20.7916
1 20.6063 9.85937 20.3466
1 10.191 16.2426 36.2465
1 45.9023 22.1408 44.7326
1 34.78 48.9349 10.4544
1 6.17782 3.04194 47.1336
1 11.1243 37.7481 22.9971
1 28.4354 38.9457 18.143
1 4.38474 24.4095 19.9836
1 11.1884 7.52858 41.9247
1 12.5753 14.7706 13.8381
1 28.3963 38.2439 15.3304
1 25.5979 26.1327 12.7229
1 37.5208 26.2598 32.0524
1 44.396 45.5025 3.57451
1 14.4137 43.2403 0.25742
1 23.4525 36.8003 48.5521
1 5.21538 17.838 44.3954
1 12.0638 40.5779 27.2918
1 10.7878 7.15613 2.13343
1 23.7577 24.038 24.4734
1 45.557 32.8211 43.0962
1 18.4955 41.4909 43.0253
1 26.0179 41.0449 49.3745
1 26.6707 48.9954 24.5989
1 16.578 32.27 18.7852
1 14.992 39.4886 2.42395
1 17.5585 34.1172 29.8103
1 13.6295 42.0783 14.62
1 46.3684 44.9773 11.7715
1 5.72854 10.1044 1.38498
1 22.3607 22.8774 43.9314
1 24.3902 34.4434 28.266
1 7.22717 25.9551 2.42229
1 2.3658 15.2417 21.1446
1 5.09439 9.85581 46.1636
1 1.59777 32.2082 5.11944
1 6.67661 18.9285 14.2992
1 13.0386 10.4148 26.4295
1 39.2568 39.735 15.8699
1 5.49432 27.2701 34.4508
1 8.27535 14.8 47.38
1 9.17499 43.7998 19.1228
1 47.0714 42.7164 1.44054
1 33.4946 28.2901 1.62526
1 0.88678 23.9934 34.0399
1 30.8503 44.4424 21.4529
1 8.85754 9.21027 48.6163
1 16.6672 33.0613 0.61173
1 18.1418 40.7925 4.72315
1 27.2026 4.71847 8.92735
1 28.5548 45.1189 23.6152
1 43.0297 36.5295 1.05606
1 17.2089 41.0163 29.1477
1 4.81703 5.84481 16.3054
1 10.7964 28.3714 8.20184
1 38.5764 39.6592 35.2175
1 40.5721 5.93754 42.9389
1 42.4208 9.23542 34.9176
1 18.8364 38.7571 30.6728
1 21.3711 49.0277 19.3311
1 9.09013 23.7462 16.2242
1 11.7596 36.2589 27.1531
1 23.0925 16.5669 35.7126
1 47.8411 1.41944 33.2325
1 42.0726 6.75175 13.2593
1 33.1922 45.7518 35.6728
1 35.9405 15.3732 35.3419
1 46.9425 37.632 22.6921
1 22.5606 11.849 35.4523
1 36.8522 26.2349 34.662
1 12.0871 39.5945 37.3695
1 29.8382 12.4741 46.7994
1 44.8398 31.4558 17.4811
1 40.8205 27.8103 25.92
1 36.6695 31.4815 46.9226
1 34.0589 47.372 23.0185
1 39.8493 2.06211 33.2187
1 28.121 6.87293 38.101
1 16.6014 28.9071 11.9411
1 18.8561 16.2374 20.2644
1 13.0534 27.2319 27.6155
1 47.0295 35.3864 0.855927
1 17.0098 40.3179 26.6502
1 42.772 21.7433 25.8976
1 17.4281 29.3421 23.0767
1 31.6582 21.7783 20.8522
1 38.9632 46.6077 13.6463
1 14.9599 22.8758 31.0848
1 9.14997 17.4549 46.7865
1 32.7906 43.8166 2.57643
1 32.4587 11.4309 7.83244
1 47.0859 35.2656 27.2951
1 39.903 28.6027 47.5725
1 31.6505 42.1297 18.0167
1 26.6133 18.0416 20.7026
1 43.39 13.6643 19.8294
1 9.57394 10.3878 22.6397
1 5.84515 40.9882 18.14
1 23.2107 44.5921 42.5921
1 22.9148 11.5162 20.4509
1 47.9257 44.1866 41.0259
1 24.382 29.291 32.7098
1 36.3442 30.838 39.2858
1 0.789547 3.08264 9.4326
1 23.3165 30.1299 23.9274
1 27.082 42.1195 45.4834
1 32.968 6.14404 1.264
1 4.20472 2.40258 3.49833
1 43.2074 31.0335 9.78812
1 4.25798 35.3931 28.43
1 11.476 36.726 43.4503
1 22.9472 46.4759 48.1932
1 18.7527 35.9704 9.52019
1 0.0237939 34.7211 5.98494
1 9.66559 5.90378 4.53063
1 28.0871 22.9327 41.1581
1 4.82265 21.5531 3.40227
1 14.2868 35.8956 1.56733
1 48.473 31.1341 12.3515
1 1.47426 23.2985 19.913
1 0.371413 27.6155 17.8315
1 47.7321 39.0893 3.16606
1 26.9512 13.1482 33.9072
1 33.7995 9.06863 42.2318
1 35.022 17.1162 16.6758
1 44.2504 26.9221 10.5528
1 4.87935 22.3231 44.2926
1 48.1879 16.5719 2.6331
1 42.1122 43.149 0.327876
1 33.2611 23.441 28.5585
1 0.303068 21.0428 19.3127
1 24.0214 9.47173 1.78756
1 28.9681 48.9939 37.7997
1 36.1796 21.5806 22.3214
1 44.3005 37.7651 34.914
1 29.1901 8.50189 29.6152
1 42.6321 11.6862 46.5062
1 18.9602 9.11481 17.4433
1 8.90598 29.9556 45.8522
1 23.003 30.1518 48.2687
1 41.2019 40.2345 7.07049
1 18.5853 4.7447 25.745
1 6.93022 32.8412 25.7148
1 23.3591 18.6308 15.1474
1 12.7573 34.5318 3.46483
1 17.319 36.2403 36.7287
1 16.707 30.3729 49.3724
1 1.26037 29.5333 19.6449
1 22.7196 41.1907 23.1257
1 12.9386 21.308 17.0653
1 8.71055 28.8198 5.72555
1 16.485 12.2471 36.2423
1 42.9859 5.46374 22.1972
1 2.36666 9.75367 45.1538
1 39.5469 4.63266 23.7223
1 16.5193 28.0519 25.2899
1 5.1316 20.117 34.6486
1 37.888 34.9228 40.7076
1 2.98159 28.8204 11.631
1 35.5108 44.6922 6.73021
1 8.58251 42.8553 11.0303
1 48.9807 48.6083 46.6424
1 35.8185 33.955 18.7279
1 14.8826 49.3256 3.59824
1 17.3823 13.6544 0.913267
1 5.16347 29.5042 9.83608
1 42.5731 39.9378 12.4895
1 45.6089 6.19248 46.2985
1 6.7256 45.3729 34.5609
1 35.1591 49.5603 48.5896
1 18.1326 5.51789 13.043
1 1.24691 20.1416 1.48976
1 35.629 39.5477 38.0289
1 23.9941 31.1691 21.7262
1 31.9122 46.4946 30.0564
1 0.68848 25.9256 22.9913
1 46.5937 18.1632 45.4693
1 46.7102 40.0578 0.0106531
1 47.1274 21.2634 3.58186
1 30.2554 0.500459 29.0349
1 35.8482 41.3941 27.5577
1 27.7568 27.6053 11.5555
1 6.86827 1.10578 29.849
1 24.1911 30.5383 11.043
1 14.4311 43.7042 27.4109
1 44.956 7.00564 20.5271
1 37.2881 13.0054 24.4592
1 4.43776 42.0231 20.5363
1 10.2202 49.3125 23.486
1 15.8176 42.5697 25.3239
1 16.5026 30.1649 27.0005
1 5.09126 48.1932 36.6078
1 7.39856 31.9101 38.0923
1 0.671387 42.1964 29.6583
1 18.6973 15.0252 33.5589
1 2.64482 4.81026 3.512
1 1.35219 47.147 7.39491
1 19.264 32.1553 2.27844
1 49.4746 15.2828 20.6194
1 21.296 17.8805 26.5671
1 2.98372 10.0878 8.52885
1 27.555 3.1769 19.5981
1 3.8093 24.9884 30.5261
1 18.6725 39.1243 0.93622
1 47.0388 36.5055 41.6895
1 15.2832 4.95447 34.9989
1 35.5587 35.2797 10.2109
1 42.0114 32.844 35.776
1 43.5409 29.109 42.5806
1 39.5402 43.3313 49.2103
1 11.9987 5.38278 30.6197
1 8.00979 37.2131 16.1423
1 48.7401 34.5495 46.1542
1 24.3936 30.3594 45.5618
1 37.5073 17.9315 7.36665
1 2.09455 1.51922 46.4387
1 16.7854 6.60168 27.744
1 33.3122 36.3171 32.4269
1 28.5018 24.0247 14.0027
1 8.40102 40.0151 43.0438
1 21.1455 13.3172 4.13983
1 28.5135 17.5785 3.12725
1 8.15641 31.7171 29.8854
1 40.1713 45.1799 37.5607
1 13.4528 10.5027 0.464603
1 32.6516 34.5595 14.1192
1 39.6945 44.5346 4.28484
1 10.2101 13.7674 31.0741
1 36.5101 0.883912 13.5179
1 26.6195 45.5715 39.9875
1 20.4275 8.1325 27.5172
1 8.9972 29.5672 23.1697
1 4.88541 35.6768 19.9894