4096
 Atoms. Timestep: 300
1 49.1336 22.9029 30.2678
1 8.56885 44.6863 31.9037
1 45.1459 13.6303 18.2973
1 10.1623 40.366 30.8782
1 9.72998 24.443 46.5944
1 0.736922 16.9751 15.6405
1 27.4829 43.0085 33.9774
1 27.6444 43.2309 25.2397
1 47.3685 48.9602 39.317
1 39.0732 26.9897 1.54098
1 45.8561 42.7913 17.997
1 7.10225 11.6711 33.7231
1 3.57859 13.4852 10.1938
1 26.0117 2.62056 13.0324
1 8.62187 33.4533 4.98317
1 38.3395 39.6784 26.6948
1 44.0064 40.1761 24.338
1 1.78153 37.1813 14.0267
1 22.0293 16.41 39.6424
1 23.8806 3.93542 9.85748
1 42.4467 3.63807 33.2798
1 7.90061 38.4545 9.77478
1 20.3774 37.2539 1.23567
1 16.2254 41.5981 36.4002
1 13.1457 45.8835 24.0792
1 24.7289 19.8066 32.0185
1 14.6699 40.4171 30.2713
1 23.1301 0.191996 4.50834
1 20.7877 2.67076 6.64217
1 8.77741 1.24344 16.0058
1 2.88525 14.875 14.8476
1 31.8336 28.3437 4.20037
1 32.1151 18.1904 6.48142
1 28.55 35.2097 12.3696
1 47.1548 48.8339 44.3748
1 22.3993 3.68117 41.4135
1 11.1482 3.02053 15.5339
1 0.525561 12.5098 4.94326
1 7.67249 15.4278 16.4871
1 49.6023 31.7894 27.5881
1 32.6578 29.6647 35.3669
1 16.3874 16.2099 2.49092
1 11.411 44.9336 26.5607
1 41.3577 37.5494 11.9636
1 40.9129 47.904 18.051
1 0.417962 39.7521 6.75821
1 22.0033 5.63038 8.95566
1 37.1149 22.0829 4.71973
1 32.8238 25.8447 46.4463
1 37.5856 2.5212 48.5687
1 48.308 48.7043 34.0173
1 4.91594 28.024 19.9911
1 16.4345 13.6082 1.05256
1 0.999639 13.6939 25.3311
1 10.7672 4.67626 31.8532
1 11.4852 9.68904 13.3763
1 10.8533 2.72096 21.7695
1 8.54892 48.9625 24.01
1 27.2225 12.2837 43.403
1 47.3362 24.5196 24.716
1 18.7358 42.5771 39.8384
1 8.48484 2.13504 29.9418
1 46.4415 32.4133 36.0763
1 34.1989 17.7177 11.1916
1 23.8763 8.00416 8.8832
1 22.3702 29.8766 42.6672
1 40.2238 24.8113 43.182
1 2.03983 20.0689 3.27769
1 38.7834 24.3733 14.7498
1 24.6109 26.508 44.4183
1 28.6792 32.6896 46.6026
1 23.1888 34.3193 2.16542
1 34.7546 6.62431 23.0284
1 41.105 8.20917 49.714
1 23.834 9.92479 40.4952
1 42.5696 25.924 48.999
1 23.8586 35.8655 12.2651
1 31.9208 46.5475 45.2605
1 13.4527 30.7337 4.89425
1 24.4434 9.8017 14.064
1 27.867 39.6501 6.37121
1 13.9013 13.9349 45.5298
1 29.1834 20.5059 38.7782
1 32.3335 22.1366 10.1526
1 32.6398 37.3998 44.812
1 35.3324 23.7818 20.8189
1 42.871 8.95731 47.5378
1 10.0136 13.5714 6.53646
1 30.7549 23.2155 8.31921
1 23.8155 18.1583 1.32011
1 42.9438 20.9811 13.8865
1 26.702 46.7071 10.7334
1 22.7872 1.81111 15.8904
1 33.3049 35.7624 33.409
1 7.98914 35.6262 12.8437
1 29.286 36.6791 29.0756
1 43.9772 7.07179 11.9652
1 25.9327 17.8349 8.36032
1 10.6078 4.19088 13.0345
1 7.97588 14.8678 24.2568
1 19.9043 6.45343 24.6894
1 23.0838 29.1715 37.903
1 8.88086 27.5828 2.87347
1 15.8619 42.1025 42.5108
1 14.379 39.3046 18.188
1 39.1414 46.0271 2.45921
1 36.566 21.0883 13.2136
1 16.68 47.0256 13.0403
1 30.0674 31.7168 7.54073
1 49.4242 39.9741 39.2734
1 18.1574 48.4063 8.75037
1 14.4106 36.6337 28.0256
1 4.87056 37.5639 46.1308
1 17.6964 4.74186 21.079
1 24.4732 10.1105 37.6021
1 20.4226 11.4587 31.6523
1 6.63353 18.134 31.493
1 42.2882 34.8551 36.9421
1 11.6639 29.5014 0.497932
1 17.5359 46.733 24.4849
1 16.2567 8.78604 1.87346
1 10.332 24.8163 27.1714
1 40.6246 15.9039 47.6836
1 22.3011 45.7411 18.145
1 48.4939 45.1628 28.652
1 12.8493 10.8093 43.5824
1 33.8549 34.432 37.8839
1 17.6663 26.0455 24.6596
1 31.9444 0.82266 24.8348
1 27.0989 30.4296 13.9931
1 37.7191 31.0475 0.425869
1 20.8608 21.6542 26.1859
1 1.62171 15.303 29.5532
1 47.6523 33.1019 8.25974
1 48.942 46.4249 19.7507
1 48.8673 18.3281 38.658
1 41.3578 6.80411 25.0041
1 25.0451 35.2292 45.1138
1 20.4749 45.3927 6.71493
1 33.9698 31.1105 44.6121
1 41.0973 5.2003 5.90314
1 6.32356 11.1092 21.5576
1 27.6136 10.1205 37.295
1 9.23471 13.3138 31.8615
1 17.9927 27.3421 20.0065
1 36.6615 16.9606 16.7792
1 25.4894 46.3991 19.8353
1 22.5263 4.07121 23.2562
1 6.66815 35.9527 47.3439
1 49.5736 19.5486 35.4247
1 15.4014 8.66195 49.0322
1 8.27084 8.41143 7.429
1 40.9094 40.8557 8.11111
1 38.6557 9.10657 9.06005
1 37.7323 5.38204 46.933
1 38.7591 14.6807 37.3229
1 25.3284 3.77778 35.2588
1 45.0766 9.57934 3.36405
1 32.2175 18.8518 20.7773
1 39.9349 5.9267 12.7458
1 17.9728 30.6062 32.8086
1 35.995 14.6047 8.27315
1 41.544 8.33587 21.0983
1 22.1164 3.7712 20.4575
1 45.4598 30.4774 39.4875
1 12.8615 18.1518 37.0997
1 30.7105 6.55201 20.3546
1 26.4522 8.4766 6.6204
1 31.7778 7.29915 11.3693
1 24.9941 3.0921 23.8759
1 10.235 6.93195 17.2693
1 42.7265 41.9654 25.7791
1 10.8548 29.2891 11.7143
1 23.4994 14.605 4.25335
1 18.7241 3.38038 17.3439
1 26.7069 24.7278 7.76135
1 46.9002 5.20085 17.788
1 48.4305 40.7588 8.5312
1 33.4219 43.2828 18.7914
1 14.1104 39.5009 45.3702
1 17.3062 10.4175 12.1775
1 19.425 40.8117 28.9475
1 17.5797 17.1759 10.5531
1 24.3118 22.5739 49.1085
1 42.488 48.853 0.931551
1 13.8611 12.487 23.4773
1 33.5188 43.6625 25.2666
1 31.5669 38.1542 34.0558
1 32.9818 4.6694 4.32729
1 13.4572 31.1163 26.1085
1 14.9311 19.3703 7.14614
1 24.9411 20.8722 11.5939
1 30.7696 2.8958 2.38981
1 34.4791 37.1023 22.8634
1 7.09646 32.2674 27.4161
1 25.2569 36.1779 4.68216
1 48.5705 5.07996 7.94334
1 16.8347 37.3095 24.5475
1 30.2276 23.5626 20.1149
1 13.9928 39.5472 12.4248
1 3.39584 6.5063 36.811
1 3.88235 38.7802 0.702064
1 25.1289 34.7222 20.0791
1 10.0903 11.0389 43.5973
1 11.2654 10.8166 20.3001
1 29.3788 16.1761 12.5061
1 33.9628 34.7768 44.1883
1 23.4567 21.2763 27.6408
1 2.98379 2.79758 25.9934
1 2.06888 1.37483 10.1937
1 11.8934 8.18264 28.8679
1 33.5008 20.7362 42.8459
1 40.9409 18.978 13.7652
1 12.4514 13.4936 32.1807
1 16.3793 32.6447 10.0208
1 25.9569 47.1384 28.0811
1 26.8973 5.19901 23.564
1 22.0832 29.5949 3.82875
1 13.878 16.3801 15.5216
1 18.135 20.319 29.0241
1 26.262 22.3934 13.5723
1 4.87929 8.15546 34.0647
1 44.5266 47.8786 24.0719
1 30.8505 4.27843 49.6833
1 13.767 21.7864 27.2938
1 29.4786 39.4236 16.9073
1 33.6092 48.2601 16.8653
1 16.5682 48.7367 16.7872
1 41.2981 36.1407 28.1
1 10.98 16.6592 20.8347
1 21.4843 25.2236 12.8839
1 25.3334 35.8192 17.5707
1 10.2586 46.1401 42.1749
1 27.0139 47.9803 40.5659
1 17.5063 17.8443 32.6535
1 0.348456 10.3209 12.9169
1 24.1837 0.931029 29.7405
1 4.96975 32.9776 14.1259
1 1.86006 48.241 10.2254
1 46.6852 30.2858 49.2807
1 8.52739 30.9729 6.14799
1 42.2607 25.6461 33.973
1 47.6411 22.2848 10.2544
1 44.773 43.4481 39.5336
1 13.9886 36.7783 33.1004
1 48.8555 31.8182 10.9843
1 49.0957 2.96539 28.9499
1 0.713403 16.9961 46.3119
1 22.844 21.1526 30.399
1 45.1783 20.6954 26.3705
1 44.311 26.3857 29.7985
1 7.35107 28.9543 4.72685
1 48.8713 3.27194 40.0446
1 33.4628 14.6752 25.8175
1 27.7025 14.2434 37.2617
1 4.53778 20.5468 36.4532
1 35.8828 43.227 21.6042
1 30.0863 32.9118 39.6506
1 11.3376 23.759 11.3899
1 5.27849 45.9567 12.5952
1 42.8264 5.81935 16.0135
1 22.5712 15.784 36.2954
1 15.6895 28.2367 18.5211
1 4.76459 44.8496 47.4612
1 8.77459 26.8937 48.0425
1 7.62942 13.1594 12.4061
1 22.0614 31.3749 34.8025
1 37.1183 43.8321 7.20089
1 21.1882 39.164 44.6945
1 4.58368 33.1172 22.678
1 20.4308 0.0350308 45.3397
1 36.1019 29.1705 32.3623
1 44.6256 10.2179 26.3604
1 3.89857 41.3718 49.6113
1 20.2522 9.75658 15.7772
1 1.01554 48.5956 49.0509
1 38.3703 44.4849 32.3218
1 17.6104 30.3717 26.0719
1 28.7198 22.7447 25.3566
1 8.39668 18.2892 8.2204
1 3.94375 26.567 14.9553
1 25.7037 48.0615 48.1706
1 39.2963 30.2553 24.9879
1 7.79301 37.1672 49.5641
1 13.849 6.54619 15.1833
1 49.6916 28.3058 2.60597
1 12.9008 23.1535 5.32841
1 2.28386 46.7237 31.4379
1 14.0787 14.8234 5.76981
1 6.83762 10.0375 46.5188
1 31.583 23.3808 28.969
1 38.8211 25.6514 35.6986
1 20.7447 39.4658 33.4528
1 20.7624 39.7306 24.6772
1 22.2101 15.7244 15.4106
1 1.83171 0.569841 13.4837
1 5.9549 18.3581 34.2659
1 42.9371 2.75807 23.6321
1 42.8926 16.133 46.4518
1 30.9584 13.9778 32.7674
1 0.989438 41.1379 19.87
1 23.7943 29.8674 23.7024
1 4.75167 12.7331 27.5212
1 19.3528 28.1341 32.5109
1 20.2728 37.175 9.32676
1 43.2186 9.38644 14.9145
1 47.6738 29.3221 21.7822
1 32.184 16.9885 44.5854
1 49.6129 24.6339 13.1998
1 16.6145 40.1952 25.3597
1 38.9044 0.0904486 9.91888
1 0.629804 12.7271 45.0821
1 38.666 27.6122 13.3293
1 24.3024 17.7095 18.9749
1 24.8396 14.1616 6.4158
1 41.3735 20.3009 44.6311
1 20.0559 19.256 20.9039
1 18.5967 39.4829 1.36696
1 13.9453 12.2238 4.65416
1 42.2459 29.3468 6.93779
1 9.39019 13.6072 43.3408
1 0.450218 7.49956 29.9373
1 36.0772 31.4587 8.46673
1 34.0214 11.274 6.83101
1 11.2226 47.3703 5.58578
1 45.0678 30.8503 24.5339
1 26.7206 25.7641 41.0407
1 9.07861 16.1418 4.22334
1 29.0496 37.4369 3.40182
1 30.6915 7.80496 18.0795
1 20.5355 44.2916 23.9017
1 20.5186 11.0841 35.7492
1 40.008 17.3657 40.2826
1 41.3612 47.1178 45.5693
1 39.6318 27.5513 24.6188
1 47.6605 19.9378 25.0317
1 43.4436 28.8241 17.1838
1 44.2383 2.95656 10.0128
1 12.2247 39.8354 10.1776
1 48.3754 15.6453 8.7674
1 47.4879 35.7155 44.2071
1 39.492 24.1818 0.944052
1 33.3384 30.0268 25.111
1 23.8904 7.02082 47.8712
1 40.4662 40.0531 24.9069
1 10.3659 1.57927 5.25458
1 26.9736 20.0906 24.7749
1 23.5463 18.7741 34.03
1 18.6635 33.0909 15.2251
1 17.49 1.23847 18.5631
1 15.8901 48.8343 7.10865
1 1.91418 40.964 44.0614
1 21.6635 26.1128 49.3697
1 9.31901 43.288 48.7369
1 40.3803 46.6494 4.78071
1 22.5824 9.52366 32.2168
1 12.0809 15.4561 7.33839
1 38.6866 12.4409 44.5511
1 18.3184 1.68777 41.2539
1 39.3829 38.2024 4.67765
1 42.1468 43.989 17.7207
1 15.6264 5.35576 25.1888
1 6.21138 47.9189 41.3367
1 13.1326 24.1808 35.808
1 25.9534 29.0521 22.4779
1 19.5961 29.0406 43.4099
1 42.7951 14.6117 36.92
1 10.4809 17.5328 38.6387
1 0.464885 45.9736 3.16855
1 19.9292 6.86425 36.8132
1 3.15969 49.0586 45.8285
1 5.27485 17.6185 27.7953
1 11.3312 22.3038 26.1306
1 32.2496 7.6028 22.3156
1 3.46172 14.1881 25.9295
1 45.2901 34.9329 17.9811
1 47.4616 12.4587 45.0235
1 15.2308 25.6742 25.5249
1 41.2779 0.843298 9.71669
1 31.8179 7.50081 28.1723
1 15.2156 5.60303 20.0422
1 34.1941 17.2053 40.918
1 19.7122 44.331 35.9838
1 2.34988 3.40189 5.22324
1 33.4077 2.24702 5.98821
1 39.9861 6.59851 39.2404
1 1.46623 24.1024 39.5799
1 11.3051 29.7501 17.4058
1 22.0769 35.1564 7.76477
1 6.17927 25.0093 44.6228
1 29.8017 3.5841 28.5466
1 12.7732 27.8759 29.3167
1 22.4643 14.9745 46.9578
1 20.5223 39.6529 40.1713
1 12.6125 6.33666 10.0947
1 26.1258 15.5962 31.487
1 15.5253 34.2979 5.67327
1 46.5785 22.7913 34.6094
1 36.2913 19.0999 40.4554
1 45.6544 1.81625 24.4539
1 28.3085 36.8854 44.0087
1 8.53368 14.5271 45.6097
1 15.0262 3.03915 5.43908
1 41.8577 38.7455 27.4642
1 26.0353 47.3465 44.6467
1 16.469 13.7113 37.2419
1 23.6096 37.1662 38.1186
1 1.71542 9.01753 28.1265
1 18.606 23.9035 23.2897
1 46.0152 20.6704 22.4971
1 17.2909 36.951 8.86467
1 28.1968 48.6589 25.3525
1 28.1058 20.8333 15.1738
1 4.58847 24.5867 30.0752
1 18.2737 43.0097 23.4391
1 38.1123 25.5692 39.4793
1 17.1878 11.7556 30.7857
1 43.5831 47.0485 7.96471
1 27.7062 47.4195 7.8207
1 12.0142 27.4466 31.9526
1 6.58578 18.5852 46.6621
1 49.6762 21.1506 32.8616
1 43.6756 36.6933 45.8349
1 16.62 33.3229 40.212
1 19.6254 36.2824 14.9046
1 4.12181 25.0914 34.9644
1 5.91923 38.1495 42.665
1 39.925 12.3689 35.6978
1 21.8469 2.59348 11.5635
1 37.362 18.6652 20.6078
1 39.0383 10.3018 34.2422
1 40.9924 23.2401 17.4651
1 43.318 32.2359 14.4165
1 40.5281 34.5499 34.525
1 4.99672 29.581 37.8947
1 42.6815 5.20691 13.4271
1 13.9245 46.1567 33.638
1 9.60304 16.4398 31.5958
1 18.3859 13.7821 39.3978
1 41.6123 49.3699 29.887
1 8.25909 26.4518 43.1249
1 33.5741 27.9237 38.3557
1 11.114 11.3975 7.53926
1 20.1487 39.6024 37.3586
1 27.0871 45.6821 46.9095
1 46.7945 11.3747 30.5261
1 11.841 11.3498 16.3804
1 12.6228 42.8506 6.02475
1 43.9979 31.0098 48.1459
1 48.3619 28.1651 48.5756
1 5.11195 6.74557 25.8859
1 27.2434 30.2013 28.9383
1 6.32397 15.1987 28.6478
1 38.1418 35.9607 30.5113
1 38.9807 47.2168 41.9921
1 26.5201 13.7358 10.9446
1 16.047 18.2946 25.8234
1 9.8173 18.1287 43.3393
1 41.2349 1.37397 14.8792
1 46.3557 13.8923 42.536
1 30.1924 49.2832 28.8217
1 6.96454 3.45246 39.7848
1 31.3343 29.9128 2.19865
1 23.5846 37.1105 29.0934
1 18.9877 3.1155 43.7255
1 15.1069 5.20262 42.6614
1 7.19783 4.37263 22.1193
1 42.5388 24.9808 8.68767
1 11.9927 30.5696 47.9412
1 14.1125 42.7131 38.9594
1 40.1972 13.1489 48.5102
1 19.0556 28.3484 40.6353
1 23.8376 36.0843 22.6236
1 7.42772 19.9588 41.3912
1 15.757 17.2029 23.3466
1 8.07294 0.0125833 27.8025
1 22.0013 15.9152 42.4759
1 49.1343 19.4328 6.67481
1 23.6821 8.0963 21.4875
1 21.5772 47.2383 14.6744
1 20.1253 29.4651 38.531
1 17.9654 10.2539 39.3479
1 48.6081 29.1024 30.2674
1 26.6464 12.1379 35.337
1 1.24218 39.7804 12.9415
1 14.7236 21.3125 32.3184
1 43.5984 37.6001 10.6419
1 7.91621 43.6953 38.6458
1 37.0911 23.4715 31.8709
1 12.2528 25.6001 44.0987
1 2.59437 16.8828 48.5376
1 28.6997 29.973 25.584
1 48.2521 3.52657 4.78341
1 33.0634 38.4664 36.4951
1 21.1561 44.1555 46.7868
1 0.221728 30.004 15.8428
1 1.17949 42.089 5.44478
1 23.5074 9.10207 28.2077
1 48.5157 5.70838 41.6161
1 23.0384 10.5545 10.0408
1 2.41684 0.920343 32.8181
1 17.8328 0.134137 47.8442
1 28.675 0.99138 34.5095
1 4.83008 34.0355 34.1293
1 48.8007 25.2022 42.5446
1 29.69 15.5757 44.9239
1 1.83691 24.6561 33.5266
1 14.7598 40.849 14.6334
1 45.887 28.3392 1.43341
1 34.4452 13.5813 35.3574
1 3.05665 36.5961 17.825
1 6.99508 37.45 27.1562
1 4.2111 49.1171 48.4307
1 16.1987 16.785 49.3957
1 5.47496 41.2172 21.9421
1 41.239 20.9793 25.0403
1 40.6169 32.2506 23.7097
1 4.60927 0.188403 17.1374
1 6.5671 43.5341 28.5243
1 45.501 21.5835 41.7858
1 3.4277 25.5805 27.6957
1 9.586 10.8061 34.4487
1 9.09005 48.9469 43.8615
1 4.0119 49.2598 14.4709
1 0.881957 27.716 31.1027
1 47.6584 28.605 37.2672
1 20.5241 36.6907 34.0372
1 36.119 13.6465 20.5734
1 2.53383 32.3139 0.772332
1 46.2778 32.4536 12.1055
1 11.7203 41.7399 37.606
1 19.1494 32.0027 39.6424
1 16.2917 29.7851 2.08808
1 5.35612 10.7845 35.5919
1 39.57 42.1059 49.5553
1 7.24721 43.367 5.05831
1 11.0777 31.1315 24.9357
1 10.6097 31.362 42.8434
1 31.8009 17.2957 17.1688
1 45.5526 32.425 41.7982
1 2.95485 46.4349 37.819
1 13.6045 22.7819 19.7101
1 7.16098 39.2091 3.55013
1 20.4133 31.7199 0.261799
1 41.5415 5.04892 8.8772
1 14.5336 17.4703 44.9362
1 18.9745 2.85243 28.9142
1 19.998 1.0404 30.721
1 39.5047 47.2605 28.8902
1 0.949483 33.2817 46.0274
1 45.9913 22.7888 18.8938
1 0.692671 34.8032 4.03633
1 30.703 46.5045 11.8227
1 26.8215 39.3636 26.7396
1 34.4271 49.7241 46.6979
1 28.3729 44.1961 44.7954
1 34.6163 8.77884 44.534
1 8.42209 14.3288 8.75521
1 4.26487 37.9844 6.73324
1 28.8956 14.6756 10.2211
1 28.7046 38.6359 33.4273
1 2.57598 27.1125 49.1929
1 26.7149 20.4352 7.07618
1 12.2668 14.338 1.11253
1 30.7755 19.4997 12.8375
1 42.6155 44.6261 32.1872
1 22.462 0.327474 25.4314
1 12.4912 42.0065 30.7815
1 2.71404 48.1481 33.8681
1 44.7687 44.9934 20.7911
1 8.36304 25.206 18.172
1 35.5941 8.55394 8.70744
1 20.5309 21.3277 49.279
1 5.72512 36.934 34.5583
1 8.36765 38.3714 43.9037
1 16.0414 26.1897 32.8638
1 11.7215 29.1297 43.3734
1 31.2303 25.6581 23.9183
1 49.2959 43.4561 3.56287
1 45.2106 6.5222 40.8258
1 25.9282 31.2712 0.343953
1 8.90455 20.2102 0.706115
1 17.6319 35.9101 41.1674
1 45.8655 48.6831 28.1242
1 41.3955 48.3896 42.9335
1 24.3042 19.7303 39.0232
1 28.0865 49.6465 2.04783
1 28.1033 7.83427 43.5844
1 13.9695 7.35235 43.1282
1 9.43374 9.90325 24.9687
1 19.1163 9.58841 29.8661
1 22.1196 19.8632 6.92836
1 11.4778 14.1424 11.8189
1 20.6819 26.9435 34.6174
1 40.6629 1.87236 25.3151
1 11.0392 13.3239 39.502
1 24.8937 31.9586 19.2539
1 30.7692 37.9915 43.0008
1 46.6431 35.1773 36.2041
1 11.4237 18.1512 28.658
1 28.7856 46.8843 5.47299
1 23.239 40.7966 12.5182
1 29.0215 18.1644 30.5807
1 39.0219 19.3081 45.4351
1 2.32757 28.6348 36.4442
1 37.2876 13.3577 48.4636
1 19.2412 15.6288 2.94786
1 8.88138 4.60686 10.9063
1 10.4883 45.8653 12.7976
1 34.6481 0.71465 4.02619
1 7.93382 13.3718 20.39
1 0.0693951 31.5103 30.4329
1 5.12488 17.3175 24.6924
1 9.27847 4.15271 23.5236
1 31.8067 42.8789 47.6556
1 36.1548 21.6281 17.0231
1 0.791263 25.4432 22.9414
1 36.3977 3.54807 5.50425
1 44.5929 13.0344 31.3995
1 1.39463 10.1151 48.2688
1 48.6263 19.3001 17.2787
1 9.9033 28.5549 33.0172
1 48.494 2.82688 44.7165
1 31.8968 46.0267 22.5769
1 11.7185 11.0194 27.7134
1 29.8825 11.659 28.2548
1 22.2564 27.6637 40.8076
1 1.93754 6.78876 18.4839
1 32.5569 42.0841 44.7354
1 30.4698 7.76095 9.10591
1 19.3001 34.2198 38.2271
1 45.7171 25.7131 10.8754
1 28.9537 21.1054 20.1037
1 26.6315 9.79736 44.503
1 6.20575 33.6354 25.2147
1 25.9263 43.7451 18.51
1 47.6446 43.8454 23.5434
1 40.2499 7.19868 10.519
1 6.81961 8.51932 27.0108
1 23.0321 27.3147 25.0355
1 43.2677 41.0147 38.7769
1 25.0254 1.23111 25.98
1 44.2208 29.8188 27.1183
1 46.2663 18.7862 37.9626
1 8.94291 35.9645 6.47021
1 18.5981 32.2312 7.82327
1 10.4448 21.3713 10.5857
1 35.7554 38.0184 36.0775
1 16.1371 2.48735 1.10865
1 30.0986 18.4919 35.1152
1 22.3129 15.0635 49.6514
1 43.3951 35.8291 21.5766
1 32.9686 26.2607 36.3867
1 17.9435 33.9275 35.8994
1 27.5706 12.2507 13.441
1 33.7949 28.1593 42.9346
1 7.83511 17.9269 24.2925
1 19.3269 32.0059 30.8161
1 45.5827 39.2209 31.4359
1 8.05801 11.4331 4.96217
1 5.29479 14.5824 23.5849
1 42.3367 12.1039 17.5692
1 31.8976 48.8187 0.653777
1 36.8829 6.17487 4.89727
1 1.57093 20.4123 8.80879
1 1.15978 43.4831 13.6759
1 21.3254 43.9998 0.556041
1 31.9599 44.4232 34.7524
1 3.08877 34.4927 38.8777
1 40.0075 47.8309 33.6642
1 11.0013 22.4338 31.8865
1 23.5746 1.49122 13.2948
1 35.331 41.6194 42.641
1 0.883784 12.9672 30.343
1 40.4635 45.0402 34.0219
1 39.1785 11.4396 25.9136
1 30.44 8.29133 5.64465
1 29.5369 24.8626 30.666
1 4.42049 2.88495 11.4583
1 46.455 46.3105 4.25173
1 14.4735 26.9888 43.5512
1 35.9574 34.4443 46.3747
1 48.0834 5.49576 45.171
1 49.302 46.8769 24.9609
1 22.0568 19.3161 18.9166
1 12.1796 42.0604 16.1492
1 26.1691 45.693 37.0001
1 33.4472 34.5039 6.5117
1 39.8153 13.9053 5.16855
1 35.6856 11.1217 21.8619
1 1.40944 4.5528 29.68
1 46.3589 44.3331 37.7283
1 12.89 48.9294 25.0341
1 28.2155 5.50954 2.46719
1 37.3984 2.23967 3.33841
1 33.266 16.9765 14.8834
1 32.0232 36.1016 47.0047
1 2.38568 10.9329 15.4794
1 32.5948 47.8093 40.1398
1 6.86482 46.2182 16.3382
1 12.4387 49.1985 47.3318
1 20.4916 10.1243 13.0637
1 33.9121 27.9383 10.8373
1 9.34072 40.0583 46.1707
1 46.3206 5.12668 36.5357
1 14.4098 1.47486 20.7782
1 14.2039 49.7265 16.8198
1 3.51703 32.1084 16.4332
1 3.26438 9.7709 7.07287
1 17.6221 20.6165 21.276
1 21.9291 43.0571 6.67741
1 4.41348 11.4423 39.9896
1 1.81355 28.0805 14.181
1 21.7253 20.8496 37.6354
1 48.3919 10.4075 35.5328
1 17.137 30.1932 5.92031
1 32.9025 4.67334 36.2149
1 0.440453 6.59492 14.6025
1 17.9705 32.8704 49.5875
1 32.5115 30.3884 22.5172
1 27.1356 15.8763 6.6344
1 20.855 47.078 11.5476
1 13.8371 20.0143 19.9385
1 14.6355 23.908 31.7325
1 25.7147 38.0349 30.8315
1 39.2208 47.5139 8.52958
1 48.2944 27.894 8.20353
1 41.5744 1.2951 19.5587
1 35.8381 7.10226 48.8017
1 38.1772 47.444 16.5914
1 39.2399 21.0158 34.0198
1 30.0733 11.6759 36.3203
1 30.8549 6.48426 1.75286
1 44.8559 26.6972 32.9009
1 42.1538 29.9324 31.0681
1 44.0545 29.4729 22.3167
1 19.3625 14.2795 13.5231
1 25.3948 1.5512 1.28366
1 3.61093 36.9074 30.3593
1 37.7414 16.1383 31.9672
1 2.98555 26.3751 46.393
1 18.1401 5.45728 28.9751
1 32.0478 44.2225 42.7256
1 30.7558 8.501 44.1669
1 16.6685 9.02683 16.5096
1 39.0821 3.71629 16.9812
1 43.7761 49.0927 19.7856
1 41.9094 14.369 27.4726
1 27.8328 36.9373 26.7304
1 17.0239 27.4562 49.3691
1 39.5366 9.60013 6.64019
1 18.2383 26.3106 30.86
1 12.1042 0.334339 31.7641
1 37.6211 38.6009 30.2662
1 36.7027 46.323 3.19343
1 11.4494 44.569 16.8041
1 29.1605 43.599 15.8216
1 11.2361 32.2865 4.4159
1 1.37027 43.9592 43.9671
1 16.412 38.9088 10.7156
1 41.6734 24.1024 2.89074
1 5.39094 39.975 5.32478
1 35.9181 29.4593 17.5196
1 43.345 28.0832 2.8343
1 26.2123 29.0184 9.1416
1 18.1615 42.2763 8.73343
1 38.752 42.7912 19.5567
1 40.454 13.0082 1.50876
1 36.8523 22.1547 29.6454
1 5.59264 11.895 23.9465
1 47.3941 44.5918 11.9274
1 19.6428 34.3485 6.25939
1 6.26829 42.7064 0.679017
1 36.4818 34.3549 6.37982
1 45.5777 26.7088 8.14627
1 25.0433 33.7954 4.19053
1 5.12983 27.3246 30.3826
1 10.765 30.9927 32.4511
1 38.0737 27.3563 44.8108
1 48.9272 44.6287 38.3838
1 27.7655 49.5606 22.9286
1 4.3041 40.8048 33.7143
1 19.7301 37.3987 48.2573
1 8.28359 0.251962 10.6697
1 41.9634 16.9777 3.40046
1 2.41775 39.082 33.7695
1 40.4573 37.6875 1.85109
1 8.9704 44.5383 7.09566
1 16.5644 10.9552 37.2139
1 13.6969 15.8967 49.3601
1 47.9344 42.1531 33.6255
1 25.2533 45.9804 16.0992
1 7.11591 4.26143 7.83006
1 7.23092 47.059 3.93902
1 26.2583 19.4949 19.4525
1 36.704 40.1026 24.8193
1 28.5139 3.91671 7.30535
1 9.68007 10.1381 9.35036
1 41.711 27.928 0.821361
1 16.089 11.1572 33.3271
1 7.77685 34.1184 43.7143
1 46.5804 12.298 35.1606
1 33.0202 45.549 8.83515
1 47.4897 20.4343 2.16889
1 12.7079 34.4645 27.5424
1 18.2541 44.9708 16.7493
1 44.3776 0.910235 26.7521
1 17.7598 27.7272 28.6585
1 27.958 19.8127 4.85458
1 29.3013 7.73497 24.6215
1 39.4745 16.844 44.264
1 35.5473 39.6092 17.6241
1 13.2927 35.9259 6.19722
1 45.9525 42.6296 47.1748
1 26.2073 38.4519 34.7154
1 24.8977 44.4404 47.393
1 21.0393 5.64546 16.5245
1 49.1832 40.028 32.9361
1 12.9222 47.806 42.8935
1 15.6115 14.1785 16.225
1 45.7272 47.0279 9.67845
1 5.76785 14.0094 18.6132
1 3.07047 30.4965 19.3079
1 17.0922 20.5983 12.3181
1 48.4881 12.6966 19.7564
1 41.3704 30.2501 48.9878
1 11.0198 6.583 43.3047
1 17.3151 36.7643 27.5991
1 43.0826 37.6903 7.81563
1 12.7169 28.1161 46.7726
1 1.90108 38.8653 46.8328
1 43.668 9.78412 8.70362
1 14.4029 6.14441 48.8485
1 30.7928 27.4263 21.8305
1 33.6824 45.201 47.4374
1 26.639 2.83478 41.3551
1 39.2708 19.4547 0.77365
1 22.1919 15.3723 28.0944
1 27.9142 27.3745 30.0258
1 8.00199 12.5566 16.1019
1 32.6595 14.7462 3.81294
1 30.5731 0.282409 2.38932
1 16.5545 13.6956 34.3377
1 8.60803 20.9976 3.93652
1 12.011 18.8291 41.0547
1 1.45698 20.9437 40.0856
1 44.2148 39.5407 34.5918
1 48.7296 40.4535 44.1344
1 4.71693 19.8432 42.5833
1 24.225 23.8199 7.15192
1 49.5413 20.206 46.5761
1 18.4419 48.2906 14.963
1 14.8836 3.97071 2.99282
1 44.8972 28.9742 30.2333
1 0.412568 28.8846 44.0776
1 16.4737 10.7847 41.5309
1 10.5251 42.4266 46.5366
1 14.506 32.1794 16.3477
1 49.591 28.6518 35.2012
1 38.0368 18.3712 34.1148
1 48.2278 33.878 39.734
1 15.0757 1.99928 18.4064
1 4.81732 4.72954 4.06863
1 13.0818 18.4863 30.8901
1 36.826 33.8463 28.8633
1 35.8364 42.1551 15.5752
1 5.8168 35.2849 15.3295
1 30.4371 5.59387 12.9545
1 2.41858 43.543 48.4429
1 38.4203 4.28061 7.47127
1 44.0411 49.5701 35.3586
1 25.3153 42.7574 11.3962
1 35.9952 12.0311 8.62208
1 30.2431 30.3659 44.9247
1 41.2965 28.8934 33.1682
1 8.73989 25.2458 33.8395
1 25.1873 5.50113 39.1066
1 43.2008 45.6722 40.249
1 9.56339 25.2996 12.3876
1 49.3449 21.384 38.1898
1 31.3877 33.5072 20.1621
1 21.8037 7.70655 1.65275
1 10.3343 9.64993 37.1279
1 40.1174 11.5848 21.2264
1 11.6238 20.1892 13.4946
1 14.7313 30.8847 18.5329
1 5.91586 34.6151 8.6464
1 22.9599 43.0452 40.0269
1 0.0663704 2.21852 6.41386
1 46.8379 38.4122 15.1807
1 1.19121 25.3192 10.8516
1 17.0397 42.6094 4.28136
1 30.2235 14.7127 36.4137
1 29.5659 20.0041 46.8565
1 39.8827 44.3225 6.34186
1 49.1229 27.8655 41.5117
1 13.3397 1.40197 14.9789
1 22.2156 19.0446 24.882
1 31.4312 45.5446 19.4108
1 28.0417 17.5268 19.5696
1 42.4512 13.0272 5.83178
1 32.8822 10.4353 21.1411
1 22.761 36.9251 2.38954
1 5.1732 33.792 48.0802
1 31.0142 33.0186 48.13
1 48.8805 39.3357 2.73474
1 29.7664 27.4768 5.92528
1 46.0449 16.197 44.1335
1 7.5146 24.3361 40.5904
1 15.2807 19.1465 42.9399
1 8.74016 25.5597 37.017
1 3.17425 17.3451 12.7767
1 31.0646 2.97179 8.88247
1 1.58988 47.3479 21.0622
1 8.8527 39.3523 39.7212
1 39.5731 24.157 5.0193
1 31.401 16.9633 22.5648
1 32.0967 46.3722 1.60718
1 16.4023 4.17303 49.096
1 32.3254 39.4045 38.9
1 48.1683 14.5891 6.14353
1 38.7785 40.2612 10.3157
1 3.83337 22.0159 21.6682
1 4.80318 24.1275 3.92569
1 14.2318 37.0326 43.8596
1 21.2149 48.8289 43.0312
1 30.8976 48.662 13.3265
1 30.6197 21.5567 26.9149
1 32.0207 45.8736 16.6119
1 9.18734 7.05045 27.4211
1 7.98096 13.001 41.1207
1 28.7809 33.0203 19.8232
1 7.93832 39.1966 25.0056
1 36.9974 18.6177 7.82316
1 13.9781 15.1636 24.3461
1 23.1233 12.5188 41.746
1 31.55 32.2781 35.2326
1 26.3275 18.0985 30.7717
1 6.23698 19.3815 17.8538
1 18.9535 26.2977 43.997
1 16.1268 6.54724 3.73523
1 7.97649 4.24598 28.0669
1 41.8649 18.3616 10.2869
1 4.56588 30.236 45.3759
1 34.3706 4.07714 26.7192
1 27.3612 2.60189 47.5058
1 39.4543 49.0245 26.7928
1 23.6365 29.1545 7.65312
1 0.605009 26.7738 18.5967
1 0.853335 32.8745 12.6604
1 38.0563 33.2207 36.2985
1 34.4568 31.2464 28.9862
1 17.7653 9.38918 47.6704
1 40.0718 13.156 16.0859
1 36.6167 29.8935 28.2329
1 13.4852 2.79053 34.5208
1 32.3536 39.4014 31.7807
1 27.1078 7.72701 3.14063
1 4.78101 12.2957 48.9956
1 0.649255 10.2739 7.95204
1 11.2174 43.8399 8.44797
1 42.7766 25.3831 14.1417
1 24.1212 8.65605 16.5631
1 0.988748 0.0902259 20.3097
1 42.5404 13.0828 20.7716
1 44.8986 46.1966 33.7439
1 8.47228 31.5967 10.403
1 6.26214 35.2413 21.2872
1 10.8325 43.8991 2.42397
1 7.26737 8.38881 40.2899
1 31.2741 40.313 26.467
1 12.4035 21.6419 41.5328
1 18.0028 6.65625 5.62074
1 31.1203 3.63143 39.8901
1 6.59998 15.2814 5.35095
1 46.6234 48.6131 36.3889
1 14.4388 1.53768 44.6414
1 18.8948 20.3273 40.4083
1 40.4052 45.6565 19.4166
1 20.3727 11.9254 2.35888
1 27.922 14.9296 19.0258
1 43.534 34.6796 27.0895
1 1.74965 1.62961 2.54737
1 25.4295 9.77723 22.4675
1 3.78788 31.2387 5.45721
1 42.5835 21.0782 42.106
1 14.1402 23.9282 49.2009
1 2.53334 11.5135 21.0041
1 41.5886 24.9711 21.918
1 25.2068 23.5316 41.4161
1 10.8576 35.9523 41.2467
1 23.207 23.7906 31.1231
1 1.92043 15.2405 0.916392
1 29.6372 19.0244 49.6677
1 37.6681 32.6337 45.2503
1 41.6262 23.5441 32.2886
1 24.1707 44.303 0.269974
1 44.6032 17.5229 24.8828
1 42.5411 5.32867 27.303
1 40.0825 33.1671 43.6652
1 11.3895 40.0309 17.8933
1 16.9835 36.7233 43.5987
1 11.4017 14.8513 14.5189
1 2.38084 33.3222 24.3671
1 8.6076 36.0372 45.5054
1 42.8657 18.381 20.3569
1 34.0993 2.68254 1.83031
1 38.1038 30.4117 38.5092
1 17.3542 31.684 19.4381
1 24.6065 47.059 0.983143
1 15.4918 39.0805 22.358
1 29.287 26.2297 20.0807
1 46.7595 32.9362 24.0791
1 39.3312 9.50525 42.2789
1 23.9737 26.5035 47.1818
1 13.7197 44.842 18.2249
1 16.8238 43.2091 46.3475
1 27.3212 44.3007 5.49357
1 36.9947 6.61864 35.9216
1 32.7848 36.8883 2.75554
1 44.4827 42.1211 34.9929
1 37.0309 39.3132 4.93066
1 48.1022 9.91622 32.8492
1 15.7953 26.4904 11.0926
1 17.0872 4.79002 44.7094
1 29.6076 29.9839 21.8156
1 8.67829 18.544 34.7762
1 39.2391 48.511 48.3147
1 15.7025 23.6701 10.4737
1 15.0703 42.1408 17.7803
1 35.152 11.0784 29.1554
1 46.8615 16.0695 24.8193
1 22.7653 41.0321 34.8493
1 10.8737 30.6511 9.15674
1 8.95416 46.2287 19.9264
1 32.6918 35.9575 26.1217
1 25.5906 40.3211 46.7835
1 24.4197 35.1478 36.1831
1 32.1136 24.2259 37.9055
1 6.7804 30.345 49.309
1 17.7754 30.662 29.0016
1 19.5972 17.964 29.1934
1 23.9103 32.6739 30.0962
1 16.6382 15.5205 29.5195
1 3.38648 11.9922 5.8911
1 46.2809 28.1384 5.19019
1 6.42918 39.2853 33.2857
1 8.44075 44.5555 17.3684
1 18.7706 39.2054 15.7059
1 39.1548 19.3908 23.7186
1 28.3648 38.7731 30.332
1 6.11226 40.922 13.5063
1 23.608 5.30611 36.7225
1 4.60321 27.7721 10.3452
1 15.7015 45.7338 6.7667
1 49.2949 13.0081 9.39779
1 43.6722 20.173 32.0624
1 2.72688 6.97045 3.10886
1 2.35874 5.18067 11.6561
1 12.758 39.1464 22.3875
1 39.5589 40.3277 14.6943
1 49.6053 48.9867 2.21466
1 28.2174 9.98298 9.95075
1 48.732 23.2339 19.6086
1 18.9538 30.1364 45.8454
1 39.6116 16.3529 6.48391
1 37.4499 12.9991 17.7707
1 44.7773 45.0756 1.12229
1 24.4066 10.9809 34.3792
1 29.2982 36.5301 24.6979
1 29.0414 2.26801 45.3175
1 28.3716 21.1977 31.283
1 33.4907 40.8793 35.05
1 44.3795 30.3265 11.7633
1 46.3103 38.9182 20.3991
1 47.1662 38.4772 33.6226
1 20.4401 9.16604 3.61485
1 22.2247 43.8114 35.4364
1 14.9657 41.9944 23.5366
1 34.0483 8.24431 26.8358
1 49.121 31.2494 5.13131
1 41.8604 19.5687 35.893
1 45.8066 20.2669 49.505
1 3.40398 15.5606 17.7038
1 18.83 12.8222 0.0460245
1 3.09902 2.98508 7.72946
1 37.2322 43.0169 48.7435
1 21.5357 17.0169 10.8089
1 36.0179 32.3033 35.1643
1 5.69869 27.0821 16.9944
1 1.80232 8.87234 41.6328
1 42.22 49.3388 25.0951
1 3.58348 39.5007 20.2223
1 23.0328 32.0919 21.6434
1 30.5566 23.1676 22.8314
1 10.5929 31.2866 29.951
1 24.9915 33.6429 15.7678
1 28.0709 12.55 24.2108
1 48.3985 41.4883 46.6996
1 14.4873 2.738 12.9111
1 3.13298 40.621 10.4089
1 13.4154 27.4757 25.196
1 16.5849 25.3215 35.4319
1 15.3522 22.5942 3.59287
1 20.3151 7.61069 10.0287
1 13.1817 38.022 1.71499
1 41.7865 38.6717 14.2981
1 19.0221 41.1615 3.3456
1 47.8606 33.6964 26.5148
1 11.1417 38.0907 27.3862
1 9.19991 39.4437 48.9248
1 5.83124 30.8205 3.56052
1 29.266 14.4186 2.47571
1 18.8314 32.575 23.4318
1 14.2474 0.515039 0.803818
1 24.8466 36.4465 33.6618
1 35.8191 6.20274 25.7373
1 49.6403 36.6871 1.6196
1 9.54709 19.1426 14.9841
1 48.4109 5.64229 10.5512
1 35.0532 47.5977 23.6224
1 33.3771 6.28405 41.5894
1 19.8343 8.06528 39.2909
1 33.7307 40.7981 25.1502
1 12.3612 8.13452 17.1711
1 47.0762 5.72982 25.1535
1 0.808004 31.0963 39.4175
1 32.2963 17.4788 24.9015
1 40.3865 23.652 24.3883
1 15.947 40.5497 0.51501
1 44.563 34.4593 1.31716
1 18.8109 47.7234 33.6872
1 16.112 3.28378 31.9765
1 23.9621 0.697557 38.4537
1 43.0832 29.1133 42.4369
1 40.5752 43.6455 1.97911
1 33.5163 27.7222 21.421
1 17.1921 43.5254 11.7918
1 15.7569 16.9123 12.6997
1 41.146 25.897 36.6393
1 44.0025 22.4435 11.8904
1 29.4814 36.2815 9.82253
1 34.9553 20.487 30.1381
1 5.04513 45.0607 4.08638
1 43.8088 13.2354 48.6963
1 39.5854 21.8813 49.0965
1 46.404 0.460324 20.1891
1 8.94544 40.5877 33.0908
1 48.4129 21.3116 21.5876
1 11.9548 11.0262 30.7867
1 11.6911 14.6403 41.825
1 30.1966 38.6113 11.8584
1 25.8841 46.3359 3.39653
1 25.2259 40.7053 33.9988
1 13.0236 49.5685 40.7119
1 18.1184 35.7534 22.3804
1 49.3762 19.5561 28.52
1 7.90554 20.7299 29.6908
1 33.7412 33.8197 35.2621
1 11.4848 26.3548 48.6949
1 29.6176 5.17953 30.7099
1 44.5677 13.8979 45.5633
1 5.02646 7.12019 39.1442
1 20.8964 25.9443 19.2126
1 1.88551 41.0504 15.0462