4096
 Atoms. Timestep: 8060
1 41.3502 15.5287 31.7322
1 13.5789 11.713 8.29193
1 24.2706 46.0979 17.7778
1 41.6283 6.86484 47.3167
1 19.002 13.8157 23.6976
1 45.8638 31.1802 26.2836
1 26.1175 47.8138 28.7252
1 44.3817 14.5657 44.996
1 4.52387 20.9049 31.9643
1 17.8802 3.82968 8.6753
1 14.9108 46.9447 12.1069
1 29.4928 25.9806 5.93434
1 47.2447 18.6262 33.3642
1 14.4091 31.1029 8.79907
1 28.433 27.8895 4.27238
1 38.7931 8.89094 13.6464
1 39.656 46.8697 4.86105
1 43.5142 16.6435 23.0431
1 6.32664 25.5319 33.165
1 4.04983 32.7227 0.686418
1 44.0239 12.1893 22.5563
1 29.1273 48.7746 23.6361
1 18.7815 10.3838 34.6773
1 25.9683 7.24091 6.3503
1 47.9467 0.957259 10.871
1 1.21216 8.15886 10.7022
1 15.0377 18.4914 7.42751
1 4.93283 48.4943 30.9113
1 13.7076 4.00636 41.2769
1 16.8075 44.3974 43.8431
1 44.4965 5.28419 44.8275
1 36.376 2.66518 5.3815
1 35.4732 5.72066 31.8781
1 5.55548 8.98481 11.9068
1 3.85801 43.5743 27.7568
1 36.8471 40.98 5.29172
1 41.5329 31.9939 37.8239
1 27.8636 13.9344 0.849488
1 49.5062 21.8239 39.4114
1 2.81198 21.4477 10.2059
1 33.4535 41.2298 30.7003
1 45.4967 28.3961 37.0308
1 23.397 4.04391 15.3401
1 17.1693 35.5644 42.5429
1 10.3851 25.0269 9.17781
1 3.2744 3.85291 31.4457
1 13.7003 19.8825 44.4494
1 39.3333 2.97155 9.30443
1 26.455 46.5476 9.10766
1 49.2972 10.564 3.49451
1 9.91556 27.5075 4.4224
1 0.715635 7.80774 46.827
1 11.623 16.2116 42.0592
1 17.2309 0.908394 29.4827
1 37.0361 38.0638 46.1775
1 33.413 14.2817 11.4822
1 18.8797 4.41109 28.0858
1 15.1718 0.669752 3.41784
1 27.2348 11.9849 30.5325
1 13.7468 19.4747 15.7476
1 30.3526 10.5157 11.8986
1 8.4228 8.39354 18.4629
1 8.83423 0.860157 15.616
1 9.31852 20.9966 49.0552
1 19.2822 28.6313 2.30673
1 48.3685 14.6286 43.2963
1 29.3427 40.7526 5.32009
1 2.3532 9.77969 22.1841
1 20.1576 45.3667 19.1823
1 45.1077 0.181108 19.4493
1 3.18166 28.8718 41.4043
1 32.0987 2.48885 40.7719
1 12.61 45.6455 11.6895
1 44.5469 21.0983 0.539414
1 45.5875 20.3513 47.8458
1 15.2764 3.69457 9.52707
1 31.4255 26.3532 30.4815
1 49.6095 32.0369 26.8803
1 22.3391 16.8014 2.95779
1 47.0721 3.05172 21.0299
1 3.81379 13.4259 29.6706
1 41.5749 43.7688 9.71827
1 48.7006 44.5696 32.1317
1 7.98611 5.62085 13.01
1 12.9315 48.4545 2.06143
1 12.7605 29.3938 30.9413
1 29.7068 44.9456 3.27145
1 32.589 19.6512 22.7603
1 12.8506 11.2217 40.0559
1 19.3519 5.18347 48.8838
1 45.7031 3.38373 17.1463
1 8.59119 19.1672 15.4018
1 14.1709 44.6753 5.43509
1 45.5596 48.3768 17.1159
1 25.7736 17.5688 38.8455
1 3.90861 38.0218 5.98785
1 39.1795 24.0726 21.5949
1 19.6988 43.7478 35.0769
1 37.3776 16.8038 7.24757
1 5.17343 11.9317 2.09776
1 37.0309 43.8934 1.41883
1 38.2952 46.5197 45.3995
1 1.43223 17.3886 42.8663
1 20.9369 30.0937 20.3561
1 5.6552 22.4589 10.1543
1 34.7915 8.35329 32.7782
1 37.5637 0.234262 6.27378
1 24.8509 17.5217 22.1505
1 30.2066 25.2717 44.0408
1 36.8236 39.3616 0.846745
1 22.4232 0.486201 25.6757
1 13.5521 35.8106 27.9175
1 11.5747 25.8529 3.07505
1 7.20788 31.0335 24.2583
1 30.0035 45.0474 33.8279
1 37.107 9.1334 6.7085
1 16.0023 12.8969 8.81876
1 10.3739 33.0499 44.6122
1 12.4266 33.0119 6.16867
1 49.5124 5.69719 30.242
1 19.8811 41.7696 19.4147
1 4.09238 20.1707 24.1594
1 28.6178 49.4307 27.9543
1 6.50341 20.5921 48.4248
1 35.5676 49.4169 34.3984
1 43.7245 24.5212 24.1121
1 9.76508 48.4182 41.7389
1 49.0785 38.3207 12.4396
1 21.8216 26.4503 14.7545
1 30.9628 24.7311 33.7777
1 3.54792 10.7269 37.1963
1 14.6336 16.2053 47.1227
1 1.60948 24.1706 49.0799
1 2.73936 41.7664 29.6349
1 5.20548 47.4434 34.2264
1 41.5391 2.61006 5.41763
1 49.9397 45.9717 43.8916
1 28.3757 29.4837 49.5343
1 33.2732 46.1854 20.3848
1 25.4577 41.0212 37.03
1 10.9486 33.4468 23.9443
1 24.9701 49.4535 7.0127
1 17.0941 29.4644 13.0712
1 4.64498 1.63538 4.65963
1 21.6401 13.6497 3.16958
1 37.6671 32.7217 18.9837
1 40.3575 11.4943 48.3022
1 26.8965 12.3698 13.9212
1 44.5499 33.8724 20.8163
1 32.3197 17.0851 6.55709
1 3.64418 20.7249 15.9975
1 38.1814 39.7797 48.3776
1 24.8772 29.1401 17.9025
1 27.1574 32.8837 16.98
1 1.11775 9.23093 31.4931
1 15.6554 39.9032 42.6432
1 49.572 26.4677 31.5015
1 33.7386 0.130958 41.4103
1 4.11335 38.3709 35.7096
1 25.2959 14.085 17.3165
1 15.116 16.0941 34.127
1 49.349 49.6361 21.0893
1 13.9939 48.1564 20.4536
1 8.43684 14.8055 6.77929
1 2.40701 19.8541 5.804
1 37.3796 6.36926 11.3774
1 26.0051 23.9111 41.6088
1 23.4946 41.1271 8.16492
1 6.78742 43.4185 0.875553
1 13.2233 24.4304 8.56022
1 0.370662 3.78711 39.0232
1 16.4011 41.4106 10.3558
1 9.66231 14.1588 9.12375
1 45.6063 20.8102 6.66247
1 14.3733 33.5974 8.76308
1 10.104 49.4104 29.7428
1 25.4815 13.88 32.7541
1 0.775979 27.3068 4.72865
1 46.5464 16.9015 37.1993
1 25.258 48.4994 36.3312
1 36.084 9.68807 14.333
1 8.26355 37.3083 34.4381
1 40.33 10.4197 34.5235
1 14.1712 8.6862 37.689
1 35.0034 21.7592 43.0427
1 11.0938 30.9828 26.1434
1 40.5034 40.6225 35.9225
1 28.8734 12.8106 3.36299
1 23.0874 14.1942 36.926
1 16.8213 49.4251 8.01038
1 0.760971 2.62877 45.2604
1 14.7798 11.0377 19.0839
1 6.52016 40.7605 8.67628
1 3.44736 1.75362 23.8134
1 47.5717 42.5954 12.3181
1 1.50712 14.9827 47.1718
1 0.265624 18.236 28.3151
1 43.8056 20.3841 25.6459
1 1.98694 47.5131 2.89548
1 29.3058 2.85699 7.06106
1 28.3837 8.88154 20.7613
1 27.2799 48.176 42.3261
1 23.5498 10.8905 40.9196
1 1.30863 47.2318 17.0777
1 15.8175 40.4619 38.7766
1 37.0891 12.4287 31.6695
1 16.7338 8.1517 43.3574
1 26.339 36.793 18.9182
1 0.440125 14.4389 21.8032
1 26.1989 3.36353 4.45181
1 7.23734 46.0362 24.889
1 2.99845 42.4314 9.47149
1 5.2666 15.6679 12.3999
1 6.04681 23.5704 35.0836
1 40.5423 29.7369 24.9024
1 1.28094 45.639 35.9358
1 17.8102 37.1975 24.0138
1 10.7581 7.82629 40.4451
1 35.8023 16.0426 21.1672
1 2.53175 41.2034 32.4485
1 21.029 3.31044 31.356
1 40.9925 10.3728 15.1007
1 8.64128 30.7704 28.7033
1 38.4036 24.3973 26.7779
1 44.5508 19.9701 34.6991
1 46.7078 34.4145 12.5609
1 49.0152 37.2574 28.5722
1 39.7373 45.9591 21.5292
1 3.06361 39.6843 9.80576
1 3.86749 10.8253 46.1637
1 34.5391 2.43853 10.4587
1 32.9461 28.4655 34.094
1 39.649 48.4744 15.2658
1 27.7882 16.2361 27.8328
1 23.3535 47.3836 45.1739
1 18.1292 39.8688 31.7704
1 2.61988 6.40065 19.2319
1 45.4417 36.4441 47.2804
1 9.63201 45.9695 6.49094
1 17.9865 18.4453 24.8032
1 5.52 20.7165 22.0459
1 3.08976 46.1742 31.4598
1 38.5165 29.3002 3.83205
1 37.5179 48.5264 13.4991
1 46.1753 45.8053 31.5237
1 6.18807 43.3834 31.5933
1 29.8323 35.382 4.53357
1 32.738 44.8745 3.20635
1 10.6321 4.66656 15.3877
1 42.4724 18.1405 5.98645
1 23.1977 19.5806 6.00471
1 14.187 43.7639 44.1164
1 6.38738 2.93682 11.0273
1 25.2539 26.6448 43.185
1 40.9539 41.831 32.1739
1 44.5636 35.5665 39.6297
1 4.69637 7.04596 20.5303
1 27.7187 33.8941 21.5474
1 10.2316 42.2304 13.3515
1 44.2882 18.1229 47.774
1 14.0192 4.68641 1.18739
1 30.7177 28.1519 38.1646
1 32.6406 1.9083 17.0711
1 0.214385 6.4228 14.5254
1 26.9916 2.16061 18.8534
1 11.8531 34.3976 48.2444
1 4.7043 5.25899 2.79547
1 26.4156 39.7066 35.0549
1 5.22486 7.63424 49.8818
1 12.5135 14.3676 26.9995
1 27.7594 15.2137 45.9099
1 42.7023 0.811206 35.2959
1 16.3725 21.5521 36.1966
1 23.4617 30.7076 8.79875
1 5.72321 26.3961 49.0036
1 9.51222 20.5174 10.522
1 26.4203 7.00929 21.6509
1 25.7824 4.56066 42.4866
1 16.5707 29.0646 27.8741
1 34.83 0.748952 36.7916
1 10.7658 4.81785 20.6059
1 14.3935 15.1142 18.042
1 43.981 1.08667 47.02
1 3.03643 28.3217 11.8435
1 2.35094 18.8015 32.6773
1 10.3037 31.6621 35.4227
1 32.0489 34.4304 30.7866
1 13.8778 31.2346 15.5752
1 18.6629 2.13346 3.97173
1 3.21933 36.6459 11.3187
1 1.3904 30.2795 40.2317
1 41.0298 13.94 49.0129
1 7.07663 26.9207 28.1965
1 29.3245 44.1144 28.8565
1 25.2736 22.8453 23.7858
1 1.89163 34.5857 30.9879
1 29.6718 36.8433 6.96047
1 23.5519 44.805 24.3401
1 42.8113 21.2468 21.6307
1 23.5464 6.3023 17.9649
1 45.6578 40.4464 43.4471
1 32.6001 24.1278 25.7398
1 6.1094 39.9967 42.7218
1 49.4085 48.2815 45.7036
1 38.0338 39.3915 43.9994
1 16.7029 45.0515 3.6868
1 2.36267 3.98571 3.23337
1 43.5759 4.50032 27.8215
1 22.6398 15.7191 21.578
1 40.827 47.8107 28.9838
1 20.8322 28.0305 16.8426
1 35.3446 29.8341 44.1036
1 38.1473 2.76031 43.368
1 23.7969 37.9911 13.0992
1 2.82889 29.5758 19.3503
1 14.5897 39.7476 45.1621
1 28.0227 31.7239 14.2043
1 14.0543 28.678 34.6864
1 2.7927 27.7396 45.4708
1 0.0685275 34.8312 42.5364
1 36.002 33.6948 25.2142
1 -0.0393241 42.0909 49.0306
1 17.1951 33.5264 23.9084
1 17.9114 12.3631 6.91907
1 25.1284 32.5693 43.6914
1 46.166 49.1644 47.3545
1 17.8233 41.171 14.3211
1 4.34614 22.6897 0.138192
1 29.725 7.90505 26.5914
1 11.8018 21.0942 20.0779
1 40.1173 40.8029 28.5143
1 49.1279 33.861 37.5284
1 14.0498 19.3719 19.5349
1 2.07021 8.40136 13.4476
1 21.9105 49.5787 44.4419
1 27.1375 13.1564 41.8658
1 38.1747 25.252 5.08194
1 30.7848 3.31936 43.2736
1 1.57457 18.5118 0.626356
1 24.5371 32.2123 39.036
1 30.261 47.4696 2.56071
1 3.9269 44.0172 1.63137
1 20.139 36.137 49.23
1 1.93997 18.9704 38.8322
1 21.7719 40.4141 16.8994
1 0.715137 44.8296 13.9249
1 26.2963 9.138 1.58592
1 5.34387 37.8492 31.9219
1 32.8649 1.66812 22.8086
1 0.515894 24.0857 15.3889
1 31.8333 11.8818 32.483
1 31.0825 14.3482 28.7812
1 46.0123 21.9478 30.8714
1 8.21237 6.521 44.2338
1 14.3008 12.5636 24.1641
1 33.5529 1.95348 25.3255
1 14.4875 8.75892 7.02723
1 15.2847 40.033 24.8552
1 21.3304 0.805673 39.636
1 37.438 42.1006 45.2941
1 16.4134 19.9433 5.46355
1 14.8026 31.4534 38.3917
1 42.5334 20.7003 12.4594
1 19.1064 10.5723 20.1531
1 42.2471 14.2928 22.5035
1 34.6931 17.3965 31.5185
1 29.3426 47.1913 7.16528
1 15.3428 12.7667 42.0621
1 23.9405 39.7374 24.4508
1 46.3425 4.15306 12.7552
1 5.86334 30.8403 38.9492
1 18.1307 2.95591 49.6372
1 36.1283 14.3617 7.97125
1 0.556861 10.6683 43.2338
1 13.0307 40.5643 15.988
1 8.36226 12.9293 15.2504
1 7.35628 40.2168 47.6453
1 10.8848 11.432 47.5358
1 31.3955 48.4067 30.9101
1 45.3274 13.1166 14.474
1 37.0332 13.9477 24.3579
1 26.9144 9.98903 28.0822
1 16.0153 24.9266 31.8232
1 5.5552 12.6525 14.7368
1 46.7425 7.55297 32.9922
1 24.0978 33.8397 28.0285
1 26.75 11.4835 44.2027
1 13.7178 16.0154 10.1211
1 7.17857 9.73945 35.628
1 6.61172 19.5909 45.6619
1 40.4657 38.5015 43.796
1 19.873 27.7857 38.2898
1 28.8332 4.77872 47.4737
1 29.539 18.4537 49.5924
1 13.7371 9.23343 1.1846
1 0.807576 39.2691 7.94041
1 22.9929 28.3233 5.30761
1 32.7354 2.67979 29.2481
1 2.2772 48.7703 12.9482
1 18.9196 11.8952 12.9365
1 20.7186 41.1244 38.2461
1 44.1649 48.1868 25.7532
1 1.20043 3.61426 26.3678
1 16.8184 20.1185 40.4258
1 12.6413 6.20649 12.6741
1 5.56419 17.0824 45.7195
1 1.11298 21.3793 7.75647
1 27.8998 6.00689 43.3541
1 36.2625 0.131365 11.2077
1 16.6212 5.4481 23.8338
1 1.21223 13.1907 28.4521
1 4.058 15.1173 23.3139
1 25.995 39.4093 28.4518
1 6.07595 42.738 48.0955
1 2.09823 44.2487 21.6203
1 2.42694 14.4763 44.5997
1 12.8138 46.0112 44.0453
1 14.1726 30.6387 5.96908
1 12.5575 14.5757 24.2262
1 0.981098 37.4736 23.6199
1 0.736784 2.3511 17.0531
1 30.7133 17.3967 29.5555
1 42.0664 43.4712 39.1242
1 11.7248 40.8308 3.50177
1 44.381 36.9099 24.4459
1 9.93353 38.4759 32.5272
1 23.2301 44.7687 37.8035
1 19.1097 5.82821 6.00631
1 41.9486 5.4821 43.333
1 38.3025 23.3181 48.1494
1 13.5425 44.3351 37.5547
1 37.5902 41.6929 11.1275
1 22.2019 45.0074 15.7868
1 6.23811 38.3534 45.1831
1 36.3274 7.90543 25.0124
1 6.78886 0.627853 48.0837
1 44.7666 26.1307 38.6609
1 17.0872 9.71052 18.6449
1 15.2478 12.3143 39.3633
1 0.613948 3.55971 14.6809
1 10.2321 37.1988 36.9794
1 8.41718 36.3436 5.07038
1 14.506 47.841 26.3222
1 9.87341 8.52538 9.88634
1 30.6489 7.9208 34.5772
1 25.4053 5.28177 24.6259
1 13.5992 3.90056 36.3117
1 24.9212 23.1409 3.99695
1 38.8329 20.4074 3.49342
1 38.0396 34.8599 26.5049
1 4.93673 11.5584 12.1264
1 26.8995 49.566 32.6169
1 47.6657 12.7799 47.093
1 35.0002 26.6329 41.1412
1 19.1481 14.0717 32.6878
1 2.59628 35.1918 42.5129
1 2.84021 39.5646 1.59666
1 7.77674 3.28442 15.2676
1 22.353 1.83355 28.9349
1 32.5508 41.4279 19.4351
1 28.5672 7.76222 31.168
1 23.6381 26.0712 36.8306
1 37.5752 4.78914 6.70583
1 1.9973 7.57794 0.110516
1 21.1444 10.1871 36.2888
1 37.8668 10.6819 22.7539
1 22.2983 2.20151 4.68928
1 23.1197 37.8928 26.7488
1 19.8633 16.5839 7.33319
1 40.3644 33.4696 26.7025
1 32.078 22.6934 12.2979
1 11.1968 15.2116 3.22588
1 27.4937 26.348 12.793
1 33.1889 3.91055 44.3129
1 40.3899 32.4935 22.2204
1 5.49085 18.9554 18.45
1 9.79775 40.1324 41.1057
1 49.482 48.8263 33.0602
1 21.0765 47.0396 4.37043
1 44.1779 9.11529 33.5772
1 21.3506 5.7971 24.7095
1 15.6512 23.4628 20.428
1 28.9893 40.2773 35.3283
1 13.7467 2.40032 18.5211
1 49.4114 19.1824 45.4695
1 44.3007 33.512 18.1241
1 45.1329 25.2871 28.229
1 15.6598 24.1076 26.1682
1 36.4445 9.23755 46.8379
1 19.3784 31.8252 47.4906
1 28.4427 23.6257 5.19775
1 30.1547 19.9846 33.2102
1 43.5566 7.7138 2.0113
1 36.2547 30.9554 49.0978
1 1.26425 11.217 33.4472
1 34.2688 41.2464 4.19819
1 17.103 20.4156 46.6871
1 14.5179 0.0767046 30.4544
1 7.62929 35.1341 7.38756
1 23.7228 12.7559 11.0132
1 44.9615 5.98899 31.7887
1 12.9735 8.59569 22.69
1 8.59125 10.0096 0.880696
1 41.9009 32.7673 11.7844
1 45.2978 12.4167 9.42598
1 7.88522 30.0893 41.8158
1 8.98492 40.3568 21.1397
1 17.2291 48.635 1.22289
1 26.6229 3.10353 48.2012
1 38.0371 41.5958 7.84416
1 0.925178 13.7768 6.06733
1 15.4287 9.19785 14.5582
1 22.3168 16.8914 5.72927
1 36.3123 30.9141 24.565
1 9.84557 20.8126 25.7677
1 47.2187 18.5251 6.82894
1 20.3882 1.22882 49.5977
1 38.8072 36.9334 21.2059
1 25.1308 16.4925 2.99616
1 45.0564 32.4449 33.195
1 33.2314 7.27863 4.11456
1 2.57362 41.7605 0.315767
1 14.3012 36.8932 39.6045
1 34.5734 46.4213 15.5846
1 47.4791 5.87078 34.8407
1 38.0617 34.8611 22.837
1 2.96692 7.50661 2.73989
1 15.3275 4.22501 43.5796
1 43.8933 29.0579 20.9134
1 45.8291 14.8947 23.1521
1 25.1293 18.8417 48.4438
1 33.6287 28.135 24.7868
1 7.96646 16.3496 25.2787
1 48.6959 21.48 3.27337
1 43.4168 19.1106 14.3565
1 10.2763 14.0751 40.4605
1 0.890837 15.115 26.6012
1 7.53288 49.0647 8.64894
1 7.10661 40.9885 2.34016
1 12.7726 2.66476 8.12886
1 5.55111 1.81724 18.3756
1 0.880225 44.1925 38.1052
1 18.5331 14.1113 36.7846
1 29.9826 48.1745 14.3206
1 12.4945 6.9243 36.1638
1 7.64727 11.8063 2.70456
1 33.0217 0.130559 0.127756
1 22.7159 6.78713 3.07502
1 38.1654 23.4824 34.4662
1 45.4722 11.5532 42.4729
1 16.0312 41.8731 22.1856
1 38.4773 7.64149 26.8478
1 31.4954 15.5987 14.8764
1 47.5854 15.2728 25.6804
1 19.4824 26.5869 27.0848
1 6.43164 11.8049 47.1827
1 0.573987 32.0328 7.12112
1 32.6702 30.0597 17.6281
1 44.3921 5.10793 47.904
1 2.04584 19.2015 46.3078
1 39.3693 34.2842 14.5269
1 13.7942 22.8521 48.536
1 8.729 44.0881 21.5843
1 16.9151 40.4488 7.95454
1 3.33935 45.2422 12.7684
1 14.396 33.0176 11.8826
1 1.84002 32.1264 16.2563
1 26.8726 19.3313 35.0799
1 27.3278 38.4941 26.459
1 13.9915 16.4643 39.3307
1 21.5474 45.0909 6.01989
1 23.3472 42.7361 15.6071
1 39.746 13.8869 5.60635
1 13.3459 0.210759 35.4818
1 28.1154 26.2484 40.8483
1 31.6797 23.311 19.0752
1 15.8668 21.061 16.2456
1 9.58601 25.3587 48.2446
1 35.9952 20.6952 33.6194
1 8.81248 3.78892 36.3003
1 9.84959 18.9176 5.36979
1 10.5328 20.8567 1.93243
1 6.6691 17.3309 3.86069
1 37.6078 7.41942 42.1925
1 38.3067 45.5713 17.4107
1 6.81281 20.1839 38.7063
1 26.0241 31.0462 30.7219
1 46.4689 23.0944 21.7449
1 20.5341 43.7199 37.5794
1 13.7526 1.19171 41.8782
1 39.1964 6.15442 13.4664
1 17.8172 44.0424 29.7648
1 12.8093 13.5642 5.71771
1 16.9171 22.4979 32.5508
1 41.5623 5.88586 11.9512
1 30.5092 28.6469 48.1852
1 31.716 8.03896 42.7609
1 38.1034 8.85213 44.5308
1 39.6882 44.1643 44.9561
1 13.9832 30.848 45.3806
1 20.2089 7.93397 14.8125
1 40.8402 26.39 1.60365
1 47.3964 2.36504 45.2884
1 39.9249 1.13482 7.28636
1 20.2259 22.0516 20.3579
1 23.9163 36.1445 42.6358
1 18.8079 38.5991 19.7515
1 40.2413 33.7173 46.6723
1 25.0226 15.1235 46.1589
1 33.5145 17.6878 24.5581
1 28.6259 42.7377 14.9248
1 16.5966 3.54907 13.8855
1 40.923 1.87486 16.5396
1 0.463393 5.14444 49.4226
1 0.270376 26.8064 18.7976
1 40.3598 9.77882 11.5376
1 17.9128 24.7244 8.15238
1 23.3734 26.0232 45.4414
1 36.626 21.0665 31.0552
1 28.7343 7.35384 6.0566
1 15.0949 22.4201 40.0194
1 33.6938 14.7333 6.41512
1 32.2399 9.63932 46.7425
1 10.8715 21.0307 46.7353
1 6.90078 7.05381 35.0666
1 19.2561 19.304 14.1516
1 11.8376 35.9186 25.7253
1 48.6236 26.7137 35.0069
1 6.34812 30.5485 36.6173
1 47.8577 11.1152 31.0472
1 20.3107 5.19355 3.02644
1 43.0064 29.5204 24.1367
1 24.7241 11.8888 20.7753
1 18.8909 9.74585 31.8989
1 8.25035 24.0165 45.7484
1 0.382305 5.48587 34.6977
1 30.7176 3.68261 10.9893
1 4.61109 5.44467 35.4855
1 34.3668 27.2268 43.9617
1 44.5299 28.4913 1.77215
1 9.83864 9.94271 24.3186
1 11.1972 49.5283 13.8126
1 40.2308 36.0098 18.8431
1 42.8284 48.3769 11.8836
1 21.6025 31.2577 45.7492
1 7.31102 24.5316 2.01415
1 12.1633 34.4351 37.4015
1 6.32026 18.7878 8.08308
1 23.644 33.6296 20.7461
1 36.9983 9.94958 32.9315
1 14.2718 22.4799 18.5536
1 25.4694 12.6312 37.432
1 18.5312 30.4616 39.4184
1 1.99066 9.47957 35.4872
1 18.9751 47.9672 34.0284
1 28.5489 29.1376 18.3063
1 6.89204 9.82718 30.9057
1 30.9851 14.3311 26.061
1 15.8771 34.0397 46.7313
1 40.6654 20.0623 22.6094
1 13.9544 46.0302 39.7123
1 34.5882 42.268 42.142
1 33.3119 11.2647 18.7959
1 15.2402 7.04255 47.3747
1 0.467196 17.6848 18.8782
1 0.167707 20.3962 25.1503
1 18.7121 33.2234 9.65921
1 31.1396 28.4068 21.5635
1 16.0183 9.78071 27.386
1 36.2831 28.4992 16.1168
1 13.3882 37.8172 46.8856
1 28.5248 20.653 31.0091
1 20.6318 3.54425 45.2276
1 15.9439 45.5711 19.9921
1 27.234 48.2401 47.6686
1 43.9434 49.2948 14.399
1 6.19894 34.0452 42.3956
1 30.4702 37.3585 36.617
1 5.68537 44.3604 4.13401
1 25.128 48.1669 21.8511
1 4.05519 48.9664 23.4788
1 30.6617 32.502 14.0913
1 30.2371 37.8738 40.9522
1 47.4719 45.0934 1.67967
1 31.9801 25.7198 6.21561
1 41.9125 32.0423 18.1323
1 2.61858 10.8617 24.9723
1 5.89086 18.7402 0.626866
1 16.7064 6.41914 45.3093
1 13.1811 22.3136 23.0382
1 8.41101 38.3664 13.7426
1 19.035 31.4282 24.4013
1 44.0731 8.29701 48.0473
1 18.5335 30.8279 30.6766
1 5.61139 28.1333 33.6559
1 5.80572 11.738 20.1061
1 11.611 40.8313 33.5458
1 14.6003 42.9587 28.6222
1 6.75675 26.2493 11.7734
1 42.4201 29.7876 46.6092
1 30.1001 16.3112 43.2128
1 24.6027 29.8554 0.761112
1 10.4483 11.6175 9.34318
1 48.2773 10.5061 16.3135
1 36.3429 12.0967 44.1852
1 35.8791 27.8533 28.6714
1 6.09183 48.141 11.1959
1 31.8201 49.1164 24.9135
1 10.2652 37.8788 6.05027
1 3.25299 4.13931 14.9085
1 36.943 0.528437 2.47122
1 0.229471 47.5458 14.47
1 8.91298 12.0184 38.3191
1 30.9772 33.9493 45.173
1 13.3941 8.65446 40.393
1 30.2928 49.5502 18.9447
1 35.8441 5.24685 22.5047
1 46.695 37.1019 40.6601
1 38.0468 39.5561 29.7688
1 42.2302 17.9723 18.2535
1 16.7063 47.3556 43.1811
1 13.3985 17.3493 44.9216
1 17.0269 47.4823 36.2714
1 3.6779 9.85537 3.86991
1 11.3769 30.1229 47.9617
1 13.4453 14.6848 1.21335
1 17.7647 42.128 42.6026
1 28.4502 8.44928 39.2484
1 7.55863 11.1843 33.1943
1 49.8703 48.4571 48.3652
1 43.7863 14.3731 19.6782
1 3.33902 49.1646 37.7674
1 1.88429 32.0409 46.7234
1 4.21941 30.0511 31.2342
1 45.9911 22.2627 17.3461
1 35.876 12.402 13.1892
1 46.0024 1.13567 13.2496
1 14.8457 15.6738 27.578
1 2.9706 22.7104 19.8085
1 39.5436 27.9157 13.7328
1 29.5035 34.1235 30.0419
1 15.7741 1.08857 13.3991
1 34.668 37.0531 28.7817
1 4.0703 6.08155 32.9585
1 36.3964 48.721 8.29931
1 17.7566 29.5933 22.7713
1 18.0113 44.2419 39.1074
1 36.8769 32.3532 29.6913
1 14.1962 20.7759 4.02525
1 17.6274 14.2904 4.69157
1 36.6291 20.1699 2.10005
1 4.33967 4.81008 10.705
1 32.1553 26.8407 18.5944
1 13.0819 27.7256 41.541
1 29.7947 38.3486 29.2695
1 43.4643 45.4513 41.4411
1 16.1512 36.3251 20.189
1 5.62352 8.48765 46.8053
1 20.3512 48.3905 36.2611
1 1.8846 33.9269 3.93654
1 34.2709 17.8217 45.2318
1 8.89309 11.509 20.2844
1 40.3068 12.7834 37.1482
1 35.4948 10.7759 16.9408
1 0.298823 46.7915 31.4785
1 48.07 49.2525 16.2647
1 24.0268 38.1857 29.3787
1 7.76689 33.0077 20.2853
1 36.2641 7.98411 1.25415
1 34.92 23.125 26.5359
1 30.2549 40.2662 43.8413
1 47.579 12.2624 33.5386
1 42.4655 44.8411 48.7033
1 29.7176 15.6403 0.245271
1 23.9154 46.2553 6.54302
1 8.28257 34.5382 12.9897
1 31.142 22.9442 45.337
1 38.5509 28.1836 20.8501
1 46.5743 35.227 43.6201
1 29.3663 3.88057 17.7417
1 48.5815 44.2721 40.9143
1 43.6422 41.4375 16.8735
1 9.71934 2.27698 7.40256
1 42.7499 49.4185 49.0721
1 8.97906 41.7587 34.0976
1 37.3279 36.7244 1.5251
1 11.4264 5.20342 26.9169
1 28.3788 2.97066 2.9104
1 20.0433 17.7745 38.9771
1 9.06739 42.8448 43.5536
1 4.25412 16.9579 8.59269
1 5.85977 9.11197 40.622
1 47.7642 11.9335 1.59544
1 39.8628 28.8581 8.96094
1 27.8289 30.44 11.5335
1 22.5121 16.2743 35.2712
1 8.18467 8.38188 12.1123
1 31.7932 36.2276 26.6854
1 22.1007 22.2683 48.2799
1 13.2838 12.4507 28.8566
1 23.14 44.3175 29.6632
1 48.0075 47.1322 36.6455
1 10.8333 38.5234 47.3322
1 0.193559 20.224 12.7437
1 31.5658 27.611 43.8367
1 32.7612 21.1757 4.80893
1 9.03878 42.4913 18.4805
1 8.43709 44.2225 4.64461
1 43.5846 9.89264 21.0991
1 27.1821 25.3425 34.2681
1 1.39127 3.16647 35.996
1 29.6254 37.6493 22.849
1 39.9799 35.1931 5.73454
1 30.6414 1.31359 9.16155
1 5.17963 31.9785 22.9006
1 3.74218 20.0777 20.2268
1 36.5602 38.1876 19.9806
1 18.2585 16.7394 13.2726
1 0.846364 38.6775 20.6496
1 16.1332 44.4804 12.5286
1 43.4467 20.0897 10.0146
1 16.1117 31.5987 13.9726
1 9.07769 22.5165 21.5138
1 10.7121 4.74991 34.3337
1 38.5979 20.6427 41.0356
1 27.6158 1.82214 13.6042
1 4.97752 30.8516 20.3083
1 10.128 35.927 14.6102
1 0.595566 41.2513 4.13379
1 8.84094 16.6407 39.6802
1 45.7797 14.3553 42.5432
1 14.7873 29.1387 25.7414
1 2.8899 42.5825 42.475
1 43.2763 31.6208 9.77314
1 49.2346 25.5781 13.3655
1 1.07224 13.278 42.7696
1 30.1878 21.8702 41.7301
1 25.9009 1.2519 9.10844
1 24.8921 36.3729 11.1475
1 10.4025 47.7768 38.9034
1 15.8963 26.9236 8.6261
1 31.496 24.5626 10.5321
1 11.3159 22.2625 28.7919
1 17.5076 46.7022 23.0744
1 10.765 28.0602 39.5856
1 7.79301 39.7188 6.44677
1 49.0072 40.9143 39.2217
1 38.1143 30.5632 35.4529
1 10.3634 30.444 0.673057
1 43.5266 41.7936 37.4771
1 28.3509 42.377 9.05023
1 6.463 8.96886 43.9813
1 21.8455 4.64508 49.5949
1 42.9576 48.1738 2.14149
1 34.025 46.9319 0.845148
1 48.5264 46.9372 5.72862
1 16.5222 1.31968 47.9847
1 22.4909 42.7162 43.715
1 35.2692 13.0425 29.4461
1 3.85448 9.8814 6.45481
1 5.61856 7.28623 30.6768
1 10.9626 6.57899 48.0428
1 12.2537 32.5417 39.1777
1 1.29299 30.8537 35.972
1 41.8076 18.7112 43.3833
1 42.5742 42.4968 34.8772
1 12.5018 36.3301 1.75861
1 44.8019 44.0054 18.186
1 11.9088 24.3885 40.0783
1 14.1468 36.8834 10.2702
1 48.4168 30.2996 25.3822
1 31.0261 11.985 44.2209
1 32.9672 10.4136 42.7909
1 33.5316 36.282 42.6405
1 18.9856 12.108 49.388
1 13.8436 32.893 49.2206
1 4.63404 25.0343 1.68559
1 4.59154 3.55916 7.71324
1 37.5849 43.466 25.0847
1 39.6331 3.00761 23.7333
1 26.2099 44.974 24.9064
1 44.2902 41.5647 8.37614
1 4.31915 2.23303 35.1965
1 11.1821 31.4508 11.6812
1 0.0926327 10.1359 9.12067
1 31.8323 31.5472 31.0458
1 38.328 19.4975 34.4852
1 16.1988 17.9923 0.667201
1 14.0479 13.7673 12.1434
1 5.10306 8.96572 16.497
1 15.0041 35.0119 37.6746
1 17.9666 34.693 19.1076
1 7.76052 31.4309 0.98729
1 49.5326 22.7991 28.8024
1 35.9574 22.1874 10.0473
1 44.9685 25.551 7.38149
1 25.6904 8.09501 14.0133
1 3.28792 8.57929 40.9191
1 14.0722 38.6037 22.8941
1 33.9107 37.4817 24.21
1 26.8953 40.896 6.78362
1 3.10526 35.3307 6.4046
1 42.8393 5.68552 19.0186
1 0.716756 1.65996 11.9685
1 29.8905 5.63571 41.335
1 32.2895 39.3449 45.6784
1 17.001 40.4848 4.34638
1 8.48687 41.0941 10.493
1 43.0583 3.54665 15.4293
1 46.682 44.0109 26.8678
1 19.5033 41.3336 34.2804
1 27.4688 40.2345 30.4468
1 28.3039 19.4003 41.7784
1 35.8389 39.626 28.0877
1 14.9573 15.4671 5.47041
1 37.0965 17.695 44.7778
1 19.5228 43.7931 16.813
1 32.4645 24.0464 8.29012
1 23.2822 18.2324 14.1388
1 20.8881 3.47168 24.1902
1 42.9451 29.3617 18.4661
1 42.4659 49.2042 16.7946
1 25.1819 7.89481 48.2455
1 40.76 32.2409 15.7397
1 38.9055 26.9741 18.2954
1 31.8156 24.7586 49.0269
1 8.0984 47.5632 2.96834
1 46.0085 24.6729 5.24049
1 18.6398 33.4408 21.432
1 29.8553 14.2885 18.1556
1 21.974 35.9039 3.55027
1 48.409 6.39209 3.46475
1 22.3065 45.0418 40.5253
1 41.1379 46.5382 23.984
1 41.9687 28.6306 28.0316
1 8.86042 22.5859 43.2913
1 13.1579 10.5198 5.23941
1 6.0715 38.5525 4.6068
1 27.6288 40.0458 15.4005
1 38.4027 27.8026 47.1149
1 4.63223 45.6386 21.2171
1 45.5232 23.6535 37.2304
1 17.0672 33.2601 38.8234
1 39.7722 22.1266 25.9072
1 46.6205 6.24649 40.1346
1 0.274724 6.28033 37.8795
1 2.81697 21.2003 39.9939
1 39.3715 33.3175 7.70053
1 3.14066 26.3051 9.94764
1 10.0767 41.8426 7.30009
1 19.3 27.0805 43.8227
1 21.7534 23.1539 33.1919
1 4.98706 22.597 39.4259
1 18.383 3.93305 22.6578
1 40.186 39.1539 22.1093
1 20.1065 5.22317 16.5709
1 1.66014 6.84127 23.2411
1 9.289 31.4998 7.2854
1 39.0556 26.4985 8.59178
1 1.44471 31.609 4.63622
1 27.8734 29.2946 15.5635
1 9.36139 16.5993 14.9025
1 19.7135 16.7407 2.90357
1 9.59449 26.6539 31.7268
1 35.2381 30.4218 21.9772
1 0.379982 41.4398 34.5025
1 48.8993 33.4294 16.295
1 33.3921 42.4578 8.60216
1 34.4082 10.4981 36.8162
1 16.259 2.65778 1.94472
1 23.2968 35.9951 39.5662
1 17.9204 46.9864 13.899
1 30.5644 0.604571 21.5516
1 21.9349 7.3613 36.1848
1 12.1442 41.7303 0.682183
1 8.98573 41.7197 4.33313
1 24.5156 41.3293 26.942
1 13.0706 48.5383 6.88327
1 11.0535 11.7087 30.5253
1 20.5533 20.2784 37.3385
1 41.4107 34.2568 3.3162
1 43.0632 27.6114 11.1129
1 35.1946 26.1628 15.3305
1 17.8843 3.17247 39.5197
1 1.5351 26.0309 2.34061
1 47.651 11.3265 44.4448
1 11.8403 34.3694 3.87821
1 45.5749 33.0622 41.0512
1 47.6227 32.1755 39.7864
1 29.6826 28.731 30.3884
1 43.214 44.2545 26.677
1 1.42949 17.6986 12.6838
1 39.341 44.2983 39.4512
1 24.6751 13.7975 13.1666
1 34.4908 6.51919 40.9101
1 5.46383 28.2442 40.0523
1 13.3702 26.0887 19.6556
1 8.51331 24.3233 11.9457
1 1.79681 11.538 7.22737
1 47.2318 4.02856 29.2291
1 39.6242 44.7197 35.0404
1 46.2704 9.49215 24.5134
1 2.28743 29.8239 22.4266
1 4.40685 25.2476 14.3253
1 8.47794 5.28571 1.75538
1 40.8251 25.8496 29.8805
1 26.4603 21.0711 11.0812
1 21.2683 36.1953 11.7587
1 30.0189 35.476 20.776
1 13.9104 22.0919 27.3366
1 35.6073 21.3464 14.4403
1 36.0972 11.1158 10.4572
1 42.8666 37.7992 35.1155
1 23.6115 31.2924 14.6303
1 2.7953 17.8038 23.9143
1 6.52828 48.4018 23.3086
1 49.0835 14.1224 13.971
1 45.196 44.4739 49.6954
1 16.1434 16.381 25.0689
1 36.2819 24.2165 22.7196
1 21.6681 47.1059 0.785104
1 34.1207 25.0597 31.4583
1 6.1019 39.9845 13.7056
1 34.1985 7.91428 35.5591
1 19.6385 48.212 43.2973
1 38.4433 20.1937 27.3731
1 35.2663 48.8099 39.0895
1 46.6578 15.0935 29.4115
1 15.4671 28.4237 23.3262
1 13.5342 48.0145 14.395
1 26.3428 23.0021 27.8205
1 37.6854 39.8332 32.3736
1 45.4663 40.4431 21.113
1 38.789 24.6617 17.1443
1 6.53267 25.819 25.6979
1 45.8631 39.6686 29.7203
1 49.2862 24.8517 36.4207
1 49.6725 26.0103 21.4848
1 8.79095 44.9847 17.3184
1 33.3515 13.2886 25.5015
1 49.0079 28.0811 45.386
1 38.1613 48.1397 17.7561
1 6.12714 20.1692 3.41773
1 23.3153 1.84701 23.3669
1 38.5563 42.5339 48.0919
1 25.415 45.5447 14.1283
1 24.3566 2.90754 27.4794
1 35.2131 43.2165 46.0829
1 23.3977 25.254 18.8358
1 11.2026 18.0166 -0.0967687
1 38.9589 10.2247 40.3977
1 44.6249 32.1983 24.2075
1 3.70964 12.2148 33.1142
1 28.2494 43.102 34.0481
1 17.3798 19.0962 17.6099
1 37.1892 4.20458 14.4834
1 8.03362 31.4116 33.2262
1 7.50836 22.2905 3.83239
1 12.4813 34.3091 18.4634
1 36.6827 46.7924 43.5001
1 39.5998 10.4647 2.84746
1 6.93723 5.25173 39.8088
1 17.7312 8.89991 15.9179
1 49.2024 44.0233 34.728
1 24.4702 37.1351 16.869
1 47.9425 17.2452 4.60889
1 16.4314 48.567 4.98249
1 13.7907 25.3264 28.436
1 6.58118 42.1562 22.6911
1 8.60011 17.8902 32.6601
1 11.5746 29.1314 23.2461
1 3.2197 46.9118 47.4183
1 24.2766 44.9471 42.63
1 1.26483 14.7551 8.82012
1 2.23962 22.752 27.5627
1 43.1625 23.4306 12.7574
1 40.1887 38.4143 37.8484
1 1.46723 3.03574 41.3851
1 13.2872 24.8231 31.277
1 46.4664 25.7658 13.3882
1 33.8524 39.0728 38.7752
1 41.8609 21.3078 0.4855
1 5.06131 5.51954 13.2944
1 12.9222 7.62602 46.5022
1 15.6771 37.8536 28.8261
1 5.6159 32.6292 4.53309
1 4.38329 22.9804 17.3463
1 44.9919 28.9186 16.4378
1 17.9284 5.92768 34.0928
1 12.0581 46.7354 26.0829
1 35.9994 36.2599 17.8438
1 48.1149 3.0428 6.26038
1 12.0224 3.95676 3.02527
1 31.4217 8.41079 29.7743
1 48.3259 8.12343 31.0024
1 38.9353 21.7558 36.6518
1 45.0076 28.6323 25.9125
1 29.1897 19.9081 38.9438
1 8.6087 39.7611 30.5794
1 39.8579 4.04734 33.0182
1 4.29434 12.4143 41.1034
1 3.17853 49.3209 19.3406
1 4.10545 6.18495 24.09
1 11.9905 48.5932 31.4195
1 27.7845 5.83538 38.747
1 0.309119 4.01893 23.6819
1 4.0808 25.322 45.3159
1 14.0479 1.01995 22.3311
1 49.4887 43.534 16.0966
1 12.6785 35.7943 41.6318
1 40.0668 30.844 27.7526
1 28.0038 47.2716 25.9481
1 3.38818 30.9643 24.6564
1 34.0569 43.78 19.5007
1 12.3438 1.03496 25.4828
1 42.8588 43.1176 44.5115
1 26.2378 16.2386 36.5558
1 22.1317 20.6265 26.1278
1 3.38806 35.3645 14.1604
1 46.6909 42.4343 39.9912
1 6.3959 42.3161 19.8733
1 33.7482 25.8429 37.3211
1 12.2671 43.0957 27.7302
1 34.9725 30.1148 37.773
1 16.1299 17.1206 36.7324
1 15.9503 4.94078 26.6687
1 1.08763 30.6409 32.9684
1 32.3104 40.3892 34.4441
1 44.5658 18.2361 37.24
1 43.8545 48.0096 28.7608
1 20.9731 34.5419 39.7225
1 43.8566 49.3524 32.974
1 26.7577 24.8309 3.14333
1 17.6952 12.711 34.5329
1 37.0749 18.2689 30.6768
1 21.1122 41.056 31.7947
1 5.90676 22.4152 45.9442
1 43.3131 36.4853 21.1087
1 10.5352 19.4191 28.5083
1 19.8727 0.268888 30.035
1 0.459682 8.02663 4.2266
1 16.0296 42.8519 37.0161
1 45.8863 35.782 9.15768
1 33.2102 41.4415 46.9121
1 21.7827 28.0485 12.5072
1 43.4436 40.1945 19.3442
1 48.8739 14.333 1.69496
1 25.5752 24.5227 8.50296
1 16.1131 28.0865 44.2878
1 29.9348 10.6205 46.1381
1 49.0022 44.7348 47.6747
1 13.8833 21.8102 8.59864
1 23.4906 7.59954 39.313
1 9.55154 31.026 22.6013
1 49.3813 46.1646 19.2579
1 13.0669 19.683 25.8609
1 7.82279 44.3676 36.0432
1 0.433941 49.6222 18.3883
1 9.95555 13.0866 17.8805
1 37.6266 46.3134 7.91849
1 0.206819 25.7991 40.0343
1 0.871394 27.427 23.5828
1 19.5392 13.7438 40.8087