4096
 Atoms. Timestep: 1840
1 16.0297 19.3319 15.0723
1 8.18893 5.92782 24.7088
1 14.0038 11.7452 27.92
1 25.8591 26.8946 16.0518
1 1.46563 19.0735 6.6136
1 15.9048 2.43107 26.7761
1 31.1376 25.2669 8.53473
1 20.817 39.0813 13.0243
1 48.6132 19.0779 30.5714
1 23.1219 15.4066 13.9029
1 46.6656 5.32287 30.0114
1 33.0829 30.1424 2.00518
1 4.21451 36.6387 39.0426
1 36.448 38.8502 37.55
1 15.9522 3.50361 5.42189
1 6.96966 2.18017 41.0457
1 4.40041 15.3335 45.1272
1 35.9576 15.2603 12.3584
1 40.6194 36.6279 6.57218
1 33.4372 48.0551 43.008
1 25.8849 38.1584 17.5122
1 22.6601 7.35352 31.8146
1 16.0767 11.2248 8.54646
1 17.0056 4.43174 37.7799
1 45.137 14.8824 26.0203
1 46.5582 36.1447 31.9863
1 33.5407 47.6979 18.6261
1 25.574 18.2861 47.3972
1 45.7538 48.0049 19.7501
1 34.0216 39.1284 15.0878
1 24.0329 6.42865 18.3431
1 37.1628 15.8806 38.4436
1 42.2233 23.4095 5.21342
1 14.9716 21.7577 41.0549
1 7.02781 43.8906 38.3721
1 20.1785 26.3828 48.1508
1 19.1875 22.8338 0.916053
1 18.982 36.6926 30.6281
1 19.5058 37.5661 1.1944
1 31.9677 15.7492 29.4244
1 47.8168 6.36178 24.897
1 41.3666 35.3657 41.4469
1 46.1167 13.8343 28.9983
1 29.4096 34.8957 0.750251
1 10.2801 2.77182 19.5496
1 35.3414 49.6635 1.3031
1 24.1912 2.50038 42.4028
1 48.0402 49.1543 33.5206
1 22.5813 27.0109 25.8974
1 49.5155 13.1434 1.47145
1 38.2972 34.8049 39.7755
1 6.19307 2.55661 46.593
1 46.3543 3.4835 32.4563
1 31.3087 19.0199 41.8761
1 11.6875 23.1196 22.7284
1 24.7994 44.6709 41.0143
1 33.5053 11.5672 12.5919
1 40.2181 44.9687 39.4745
1 12.0585 33.1783 4.88219
1 1.93602 46.8465 20.5254
1 9.56933 42.3191 34.3673
1 13.1031 11.9492 44.7078
1 21.4789 46.9853 6.42408
1 4.54865 39.807 29.1531
1 6.51323 0.0302604 43.9539
1 6.56515 45.6054 19.144
1 6.21837 7.0198 49.6938
1 40.7002 31.1724 35.3744
1 5.86976 41.4631 7.3156
1 39.648 18.9505 40.5415
1 26.1541 26.1226 20.5538
1 39.741 31.4844 0.868798
1 35.7444 43.7784 10.0265
1 30.4656 32.5729 6.86851
1 29.5519 47.4931 14.7356
1 47.8512 27.1021 1.57526
1 0.607592 9.98058 25.0391
1 14.358 33.4429 33.7671
1 37.4649 0.533361 12.4884
1 27.5684 26.0553 13.2331
1 37.5943 12.981 34.9232
1 7.37731 11.8671 8.52567
1 29.1879 16.002 28.5961
1 30.2564 11.3674 0.290464
1 13.9437 29.003 7.43603
1 30.0285 8.97676 18.2967
1 40.6394 11.4464 41.2183
1 30.9568 26.3052 46.6376
1 41.4294 27.781 7.07502
1 25.1168 29.937 14.1624
1 6.82571 21.9472 43.1879
1 42.7851 9.22066 13.8916
1 21.0024 27.2902 7.29661
1 9.06695 35.0976 7.19846
1 24.667 49.0139 39.5382
1 28.2963 12.3107 44.1433
1 2.9246 16.1254 23.3133
1 49.3172 43.0841 30.8625
1 31.2796 12.6277 32.4324
1 35.3434 26.1727 23.745
1 25.5012 40.5716 18.951
1 43.3331 13.3004 4.10242
1 4.69374 17.869 44.1164
1 39.5842 47.0183 35.5515
1 26.5744 47.9711 31.1489
1 16.3587 9.79253 11.5743
1 46.0976 10.4159 29.998
1 49.2849 0.490953 37.2031
1 36.9643 5.17519 11.6275
1 36.0379 4.67576 13.8877
1 45.021 43.6418 7.47801
1 35.6098 27.2863 44.4267
1 27.5964 40.7815 3.42281
1 48.1882 4.36677 17.9245
1 17.8398 32.3191 15.2312
1 43.8217 39.5838 23.0261
1 44.2243 41.6016 29.0572
1 27.3172 25.387 0.891494
1 5.03201 30.9576 29.4067
1 11.3805 7.10617 36.2977
1 18.5038 2.91975 16.4079
1 13.6836 3.73054 35.6583
1 41.3746 29.5794 2.33554
1 31.546 19.2857 48.0033
1 42.9328 42.2907 42.0331
1 39.8413 20.4089 14.6234
1 47.3918 22.0538 10.5549
1 47.8519 2.82796 35.8431
1 13.3321 14.5794 7.66624
1 31.6854 39.7841 11.404
1 43.3765 5.79604 43.3025
1 42.5467 37.6836 42.5607
1 10.8562 32.9457 43.5667
1 8.02603 37.6441 27.697
1 9.86273 37.6868 39.1282
1 47.478 41.716 16.6447
1 5.4356 7.50377 37.0861
1 35.6445 13.798 2.79634
1 47.3392 26.4388 9.22882
1 31.4463 44.4736 35.9084
1 16.5348 26.3111 0.943784
1 40.0796 49.5136 18.7877
1 37.3548 12.7059 23.5039
1 32.7049 34.4748 48.6616
1 35.2774 10.7556 41.1913
1 23.4741 17.7485 35.57
1 12.7127 22.4455 40.409
1 14.2545 44.3701 42.5112
1 20.8713 24.6823 22.8098
1 17.7706 15.9135 44.5782
1 11.1836 48.9486 10.1416
1 47.7799 15.9242 4.68256
1 6.46203 47.2271 8.637
1 20.4829 38.2103 48.5424
1 42.9387 19.1504 28.1387
1 3.72026 6.02279 0.536242
1 24.4553 10.8685 35.2541
1 16.7776 38.0717 1.78261
1 10.3424 39.5538 8.57669
1 7.57006 33.8758 30.2389
1 46.7855 48.413 10.0191
1 7.60113 40.8537 20.283
1 28.1397 35.4933 27.2299
1 12.8406 1.98041 47.0542
1 16.364 9.14381 37.3279
1 15.0444 12.5549 34.3357
1 32.2094 46.659 3.82376
1 38.4611 12.8524 27.8482
1 2.63447 48.205 24.1722
1 5.82666 46.3484 24.318
1 49.8598 39.3935 34.578
1 21.2176 17.6155 46.6034
1 43.5023 9.85092 11.1667
1 26.6729 21.8522 41.4566
1 43.1638 31.0227 49.3967
1 6.27128 29.1867 24.6593
1 25.3839 37.414 11.9196
1 44.8493 46.0578 6.27012
1 34.4475 27.7864 19.7525
1 16.5781 7.47571 18.3836
1 29.4892 19.8308 33.5134
1 36.6875 21.3097 35.144
1 44.2091 47.7121 48.1775
1 49.467 20.7796 11.8868
1 44.0179 17.2574 6.96609
1 23.2754 33.3098 15.4521
1 4.7109 49.2 3.88761
1 21.9628 44.0619 5.02178
1 26.7959 9.10491 30.0462
1 19.5544 -0.0440041 0.931387
1 18.3613 9.177 14.5054
1 22.069 19.4993 43.106
1 31.9688 27.2261 24.973
1 2.04135 21.3347 33.9876
1 21.3763 41.7276 46.266
1 0.00367108 6.84527 28.7017
1 6.05894 16.7632 32.0077
1 43.9035 42.6803 24.8903
1 19.053 20.3572 8.05819
1 39.16 34.1346 48.1153
1 40.7639 4.50579 9.72584
1 43.6846 11.2904 31.8502
1 38.6827 29.853 24.6182
1 39.2753 21.7886 19.8013
1 34.0565 32.2278 12.9557
1 35.4952 30.9443 15.8966
1 1.42027 31.8007 11.8486
1 39.1734 13.7464 4.06839
1 15.057 36.6648 19.6418
1 12.9875 27.8918 48.5117
1 6.34516 18.0445 41.9072
1 25.2192 25.545 5.70929
1 31.9827 39.0063 20.4575
1 11.5356 43.2314 10.8736
1 16.6115 42.8664 46.5622
1 21.7341 2.24266 33.127
1 7.16632 30.7673 8.2407
1 28.4455 43.4575 37.07
1 30.4863 12.9412 46.1713
1 35.9805 18.5997 41.2766
1 46.9812 24.4242 1.63394
1 25.3532 12.9511 16.3243
1 28.8005 39.9541 22.6612
1 46.1568 25.7473 15.7193
1 47.2992 44.9584 44.4777
1 7.10826 8.439 42.4116
1 1.40969 39.9988 23.1081
1 36.2371 24.0192 15.4179
1 16.8995 43.963 39.0868
1 9.79658 12.7372 1.39516
1 33.7354 21.0456 37.9201
1 40.1273 15.8459 45.8619
1 49.4344 37.1824 23.8131
1 0.85785 25.2346 41.3369
1 19.0318 24.4835 27.5755
1 0.250538 43.3922 33.8322
1 29.4425 39.6532 1.24972
1 16.2545 12.4762 0.831899
1 24.5404 25.958 32.5038
1 49.026 31.8339 25.7773
1 7.28536 14.7473 29.5931
1 12.9494 35.4758 17.3801
1 1.4514 12.1826 18.0658
1 7.23421 8.42165 30.6308
1 44.2824 6.59472 6.29606
1 31.9518 15.1486 14.4592
1 33.1056 15.0768 35.9454
1 36.6352 45.4993 29.016
1 32.2463 45.5131 22.0019
1 10.1589 9.58553 10.4643
1 18.764 39.0515 22.9108
1 43.6516 6.35146 10.6435
1 10.1454 35.2058 17.8683
1 20.4751 27.0654 33.2011
1 47.6842 2.64457 12.37
1 6.26706 25.2319 38.4332
1 31.5824 10.5139 10.8159
1 5.16083 34.2346 42.7239
1 7.61594 43.5844 43.0831
1 15.8338 23.3905 8.37385
1 31.759 19.5335 13.3211
1 20.254 38.622 10.1745
1 5.13085 39.9742 20.2809
1 34.7435 0.267524 35.4757
1 24.9991 47.7027 4.16748
1 39.6757 17.4717 5.78263
1 43.6528 29.9784 37.7462
1 9.35804 48.9695 35.7495
1 24.1767 37.0239 36.7551
1 34.0448 19.0836 12.5182
1 31.2151 47.93 33.5352
1 13.779 8.44288 35.2507
1 9.0538 37.9948 7.10193
1 49.1351 48.1957 35.6811
1 36.1797 2.07948 14.4164
1 23.3673 2.07033 19.2668
1 5.18202 15.2392 10.6148
1 11.5903 22.0892 29.5575
1 43.7735 31.3583 20.3391
1 7.00322 35.2063 36.8546
1 41.6261 12.3614 25.8858
1 18.4164 43.9589 11.8849
1 35.971 22.7305 29.9104
1 19.3892 6.91387 18.4409
1 29.7739 42.4148 29.5786
1 2.02829 23.7061 35.7538
1 34.1485 22.1994 41.0797
1 24.0376 40.9046 0.798083
1 8.90135 46.9988 33.6514
1 6.04932 40.0755 26.2486
1 42.6339 46.7554 28.7087
1 20.2206 2.91531 3.38803
1 20.3562 25.2268 11.872
1 22.2512 8.58792 29.4146
1 8.43968 20.0822 36.3153
1 8.5897 23.9469 42.5988
1 33.9709 18.4462 46.8968
1 27.6851 23.2825 31.2314
1 45.6383 23.5461 44.9582
1 16.0306 12.0514 5.82281
1 40.7419 44.6817 35.9453
1 17.7905 35.1249 18.6876
1 0.540553 41.7882 44.2781
1 7.86 17.0346 22.1247
1 22.3897 4.67113 17.4788
1 18.4014 12.1895 16.6184
1 38.6248 12.0776 46.4229
1 4.17545 34.0166 8.0974
1 6.07586 10.6864 18.7706
1 38.4199 41.1575 6.12052
1 4.08011 25.7584 36.0316
1 0.393664 26.2117 29.4262
1 4.5963 25.839 48.0026
1 19.922 6.89228 13.3038
1 3.89752 48.4002 7.98531
1 9.50735 41.6399 4.41317
1 34.2282 10.1613 37.4663
1 38.1664 41.1398 28.9614
1 23.0706 11.2288 29.2303
1 45.4041 48.7404 24.2434
1 27.7961 39.8907 25.1514
1 10.0093 3.8241 33.4375
1 44.1853 12.2526 1.31445
1 20.5685 24.7607 38.8505
1 39.2745 10.9145 3.4785
1 14.8203 19.5629 36.5735
1 48.1027 9.07281 5.90507
1 14.0179 28.8289 22.5691
1 13.3721 49.0649 22.6187
1 18.6276 10.6704 10.2427
1 23.2293 18.5608 10.2538
1 30.2814 28.4194 5.55582
1 45.2954 35.1055 44.2135
1 27.1498 35.1127 10.4989
1 42.6947 44.5363 21.1578
1 33.135 4.32838 35.6997
1 3.76206 30.9073 19.2388
1 20.7946 43.3508 43.4137
1 47.9522 34.7003 18.5815
1 10.1507 14.3297 26.3235
1 45.7778 1.81602 23.92
1 42.3415 25.8433 34.3513
1 34.416 7.28403 41.4601
1 29.1555 8.48763 32.0036
1 29.9294 34.3029 44.522
1 33.5253 31.4882 27.4284
1 21.361 5.44317 24.8479
1 10.2822 33.6041 39.6858
1 46.3563 17.5607 26.3923
1 31.0934 3.51811 15.5287
1 47.3726 6.30119 21.6156
1 34.9394 38.6632 29.163
1 15.4986 47.8331 2.5484
1 31.5792 0.525924 12.94
1 5.4892 22.1019 21.8854
1 14.0228 46.3604 15.3225
1 1.02402 20.4945 42.0237
1 47.4324 22.739 3.74134
1 23.1458 39.5724 34.843
1 42.6297 2.28862 27.2866
1 29.8227 21.9048 1.30664
1 18.9222 31.6365 4.59503
1 23.2938 17.3437 20.4333
1 14.3728 21.5374 45.4329
1 49.4934 37.6926 15.2886
1 26.1971 5.84015 49.0742
1 3.84513 30.1031 0.222833
1 37.1697 10.0469 33.0693
1 17.3452 15.157 4.09526
1 17.825 1.74315 45.3313
1 20.069 12.6547 5.30111
1 5.97829 9.40853 34.8848
1 40.6466 5.0795 13.3964
1 32.2134 9.75745 48.9036
1 42.9377 19.7797 7.20418
1 9.55214 38.5501 11.0331
1 45.3905 33.6895 16.9915
1 29.2884 48.0153 45.7237
1 12.9208 39.115 8.49569
1 23.6175 1.65785 39.9993
1 19.1847 48.9749 31.1527
1 0.0722807 16.6455 18.6259
1 1.44873 33.9168 41.4589
1 10.584 9.46804 14.6473
1 18.0086 24.294 38.3939
1 49.6047 20.4794 35.3165
1 6.47484 29.6147 49.6871
1 19.0172 23.7888 20.6972
1 14.2823 21.8692 32.6454
1 6.75424 22.6673 18.8013
1 31.2858 20.7708 39.6823
1 40.6158 23.0238 13.6492
1 32.1444 16.9708 45.1805
1 6.57077 34.6292 22.8787
1 14.2163 8.90046 41.7007
1 41.3202 43.5879 33.7266
1 13.8323 16.379 1.29105
1 43.031 24.3207 8.74248
1 15.8198 45.5831 22.7209
1 17.5623 36.7563 28.1528
1 21.7842 14.3973 8.8812
1 44.7137 26.8804 8.00698
1 33.5292 6.19369 16.1978
1 20.1574 35.6893 5.86598
1 44.1168 24.2417 33.0313
1 42.3009 33.0805 1.52032
1 23.4416 27.7038 17.7028
1 44.5711 46.4826 21.9704
1 22.3589 6.94545 27.1143
1 31.7768 7.17308 47.8135
1 22.2226 38.418 23.4327
1 41.4299 10.2163 18.1342
1 25.0076 29.2557 10.2532
1 23.6133 33.4239 25.7011
1 16.6706 29.5152 32.5103
1 33.0362 42.0195 46.2651
1 21.2182 3.90951 20.0952
1 18.1829 41.6817 39.9884
1 34.7781 36.3695 41.0256
1 20.8846 27.2857 23.2321
1 17.535 40.4398 25.1529
1 11.9068 37.4427 41.0367
1 12.5351 4.11089 33.1872
1 24.9636 28.4983 44.9507
1 20.8315 11.9002 26.2263
1 21.2888 20.6672 22.2663
1 23.6413 25.7875 19.695
1 20.1346 39.9189 16.0723
1 22.4446 31.3173 1.81221
1 5.59446 13.041 44.0177
1 12.8656 42.3427 41.1444
1 6.82932 11.0245 1.88602
1 8.83303 35.7279 42.6717
1 2.19373 13.919 24.4649
1 19.3241 48.1457 16.0084
1 48.7066 49.5074 39.9143
1 6.8914 0.522877 18.8384
1 33.1968 10.7661 26.0765
1 47.3371 15.1531 1.63304
1 7.75021 4.75623 49.104
1 33.7857 49.5687 22.753
1 27.7884 6.77752 24.0069
1 2.89598 43.2415 25.9771
1 25.9506 5.13102 24.8957
1 48.3618 -0.0371624 20.3862
1 46.6528 17.7335 17.0676
1 6.39939 48.6883 35.9814
1 47.7733 15.1469 17.2851
1 42.3047 8.65348 42.5511
1 25.6541 1.23159 11.414
1 3.26546 5.08496 20.7642
1 12.7187 48.5497 42.149
1 6.72781 10.2067 6.76014
1 17.5365 49.0086 41.8449
1 12.4445 22.1851 13.0503
1 4.87917 13.4586 13.4748
1 24.4903 44.2002 13.2389
1 44.1274 39.8255 10.2929
1 46.746 5.26775 2.33101
1 9.874 14.7196 29.0641
1 39.3706 46.5461 41.5114
1 4.32227 36.8991 1.26824
1 40.6496 22.4072 31.1024
1 41.2251 36.0025 47.6962
1 33.5032 17.8165 36.4378
1 44.0613 15.24 22.2367
1 16.7175 30.8261 21.2457
1 9.36786 5.38248 4.50989
1 8.42623 1.68336 10.0588
1 35.9223 36.3508 44.9237
1 46.9272 38.4679 31.0307
1 13.3574 12.6431 12.1632
1 44.6082 10.8248 14.8137
1 23.9106 24.3027 43.4815
1 27.6997 4.48724 17.7373
1 30.7019 49.2006 10.619
1 23.3363 14.0245 33.9477
1 25.0924 41.2127 44.1745
1 43.7803 3.32132 41.6629
1 25.5766 36.1 20.3725
1 35.9623 28.5156 1.3208
1 2.09649 34.4194 38.922
1 12.2156 11.8861 4.5241
1 46.8811 34.1154 22.5882
1 46.2125 45.6754 18.0958
1 20.2821 0.733483 44.6599
1 2.57733 6.00819 34.3329
1 21.4442 6.59326 -0.220247
1 8.94019 38.4586 0.53596
1 16.0269 25.8421 46.254
1 49.4544 29.6573 12.0364
1 29.7589 26.7927 23.1403
1 -0.024394 5.1072 30.9411
1 49.193 47.3763 11.5291
1 12.797 1.09243 1.89805
1 6.75514 24.5402 11.3622
1 40.4527 40.017 15.4793
1 17.9804 41.1178 11.9946
1 16.9261 15.1466 42.1328
1 10.8392 48.1521 25.7481
1 12.8477 15.4012 21.8212
1 16.1483 3.72442 24.3085
1 14.863 28.274 14.0067
1 37.4954 11.6144 1.23661
1 5.72285 25.4231 24.0881
1 9.70119 25.5444 1.54834
1 17.3879 27.0632 48.3137
1 24.5866 14.2424 47.104
1 9.04476 3.53166 22.4108
1 12.4155 28.8095 30.9524
1 12.6205 39.4232 45.3345
1 29.6303 19.2143 21.6532
1 23.5955 23.3035 28.4493
1 21.3594 13.4013 30.4279
1 0.00990269 21.0267 26.4222
1 31.7725 23.9301 47.0051
1 6.31575 19.8953 12.3065
1 8.38097 2.15768 12.5592
1 43.8278 37.7411 20.9939
1 17.4827 40.9022 33.8744
1 29.1235 39.013 11.8689
1 18.5981 4.40577 46.5139
1 10.5753 28.5862 49.1407
1 18.4367 7.54813 22.9826
1 18.5469 22.2508 32.6848
1 34.7704 24.5413 21.6156
1 45.298 29.57 13.9108
1 26.8232 48.218 38.2163
1 30.1579 21.892 48.1968
1 14.9495 19.7837 6.13717
1 35.4696 33.3 30.8325
1 24.5843 20.6052 14.3442
1 6.86046 30.3894 19.3855
1 40.3386 24.4181 16.4507
1 30.2747 5.56624 13.5945
1 27.1225 4.44831 45.1
1 47.7009 9.34574 12.1804
1 19.1655 32.3015 9.12886
1 30.4293 33.0639 48.1145
1 7.59211 48.1754 12.1352
1 18.6211 34.4855 4.13375
1 42.0062 15.6301 33.425
1 16.1944 26.1764 37.5992
1 30.7073 10.0615 24.7979
1 45.1228 18.325 43.744
1 5.80431 33.1632 32.6618
1 15.7397 25.6958 41.9674
1 38.2832 17.1454 1.81358
1 42.9194 24.6402 24.5843
1 28.6533 8.24962 8.09604
1 11.3764 2.40713 4.05725
1 28.8661 16.0258 48.7894
1 14.0335 43.0182 9.82779
1 12.2707 19.8849 2.02997
1 20.8487 10.0832 23.4183
1 17.8166 15.9771 49.4424
1 38.988 43.0436 43.7498
1 1.18763 28.3126 43.944
1 20.021 1.77846 21.5164
1 39.4674 40.3306 40.2036
1 10.9695 0.0368763 32.6771
1 38.7568 20.5239 1.37492
1 34.1307 21.5687 28.0631
1 22.0514 34.1604 18.4068
1 5.87106 17.2016 28.2693
1 15.6077 12.6494 21.579
1 30.0866 24.3647 4.65182
1 15.0731 37.4179 37.7818
1 44.6496 7.13827 39.2519
1 41.4702 20.0488 41.8866
1 35.8699 12.521 19.8587
1 43.0457 30.105 35.2519
1 15.2563 31.0509 2.70069
1 27.4533 30.5997 23.8041
1 44.1078 26.1774 19.1623
1 49.1176 22.1685 16.4493
1 3.8196 28.2295 11.6713
1 28.4495 11.2359 30.0146
1 44.7336 33.9814 35.6775
1 39.7112 34.7564 37.307
1 46.1701 26.1626 5.6821
1 38.2839 14.2608 9.46572
1 37.3214 17.3463 13.4575
1 12.0239 4.69722 10.844
1 44.189 29.3844 16.259
1 5.13788 40.9149 3.23132
1 42.8053 36.6745 45.1407
1 11.4335 4.67144 2.29828
1 41.0038 13.7575 44.3576
1 47.3354 33.3512 28.8842
1 3.11071 29.6813 38.1055
1 4.17164 2.22791 34.8501
1 32.9302 19.4168 5.36406
1 48.8655 6.51236 35.6561
1 6.6281 17.2449 25.4809
1 11.2259 42.2949 22.4688
1 4.35098 48.9573 26.8165
1 14.4039 16.5663 38.496
1 23.3583 30.5004 28.9333
1 10.9601 21.2274 49.6938
1 5.14083 6.41702 17.9116
1 32.6202 43.5547 17.6011
1 42.2034 12.1694 10.3345
1 19.4846 34.8329 8.38921
1 35.5463 4.74304 22.8978
1 5.69281 40.0243 12.9073
1 26.229 22.4854 12.4226
1 31.5622 39.2421 31.6489
1 32.5759 28.7562 38.9801
1 34.7753 14.728 26.6664
1 34.4101 40.1835 36.5295
1 40.2935 16.2242 10.1286
1 37.7271 2.45324 16.5265
1 8.41653 10.3892 34.5623
1 8.37141 37.9026 45.6206
1 36.8177 21.543 18.0737
1 38.208 48.6712 22.8716
1 45.4759 12.8821 37.1352
1 38.355 5.5527 31.9783
1 3.44072 33.5654 3.72104
1 49.1778 23.2115 41.9509
1 2.31037 41.2949 48.3702
1 1.80029 18.3746 2.73928
1 39.9071 26.0302 25.1478
1 25.0893 42.0317 3.1619
1 13.1871 42.6411 5.64564
1 44.5843 39.5701 33.5262
1 16.6375 23.6975 1.01053
1 21.9062 16.6824 49.1112
1 37.3889 28.6436 30.8425
1 40.9749 43.8377 5.96931
1 15.9745 9.34196 2.01955
1 41.6343 43.6241 23.681
1 2.00421 40.5812 16.8508
1 47.7454 3.91297 39.098
1 21.7205 38.6232 18.183
1 9.68671 39.9168 13.3333
1 32.3155 30.4196 42.7626
1 17.1926 6.10914 4.47743
1 2.27876 47.9296 34.6604
1 47.3948 35.5971 39.7275
1 12.479 2.71561 44.4534
1 30.0504 23.5549 30.6602
1 9.56422 23.8768 38.1215
1 19.375 21.0515 24.4127
1 1.46392 22.9427 29.1092
1 8.7009 27.0857 4.07099
1 49.2 12.5868 4.15463
1 11.131 3.3874 26.2587
1 29.1118 4.00513 41.3192
1 3.60748 2.10118 22.9348
1 7.74614 15.6742 0.267325
1 15.6335 22.8665 23.7786
1 8.94102 19.4973 22.8429
1 32.3171 9.89938 14.7597
1 21.9319 28.0419 4.80606
1 4.81996 6.37315 4.2029
1 41.2819 3.71819 37.4216
1 48.9852 32.0028 0.434052
1 11.0787 1.84995 6.73655
1 39.2507 23.5263 25.5402
1 44.9818 33.3894 48.9033
1 27.7873 44.0116 18.922
1 5.32831 3.97682 22.0805
1 15.3466 19.8473 49.2217
1 21.8532 11.6713 40.4114
1 19.9221 21.0086 5.74214
1 13.5753 31.3958 29.2617
1 12.8307 14.7548 16.6083
1 47.4251 39.6785 4.39444
1 48.9074 39.0246 45.702
1 8.451 44.8406 35.7109
1 14.2149 30.5462 19.7307
1 5.90011 31.8461 38.7105
1 0.445663 42.2179 22.1018
1 7.70807 31.8482 22.3573
1 27.5025 43.6261 22.3029
1 40.7811 12.398 20.7039
1 15.6902 33.3207 13.3476
1 28.1761 47.3156 48.2341
1 35.0345 18.7138 26.9016
1 8.08959 31.0863 25.1218
1 38.9243 23.9844 39.902
1 8.83518 29.6065 38.4197
1 40.6389 19.4843 20.676
1 33.7485 4.90043 8.56118
1 33.8416 14.4158 9.03427
1 15.3118 31.0007 37.6196
1 42.6273 9.14945 30.9395
1 46.0898 12.4848 34.5408
1 33.7134 15.0878 48.7104
1 19.6041 9.09006 26.5383
1 0.880547 34.0221 25.9557
1 26.4504 21.2385 4.39849
1 17.8556 43.3141 35.6588
1 10.109 44.9284 2.11942
1 8.48929 41.4032 22.7959
1 21.6503 33.5527 46.6516
1 9.91616 17.7762 14.4089
1 30.5552 35.2593 6.77181
1 6.97091 44.9514 47.355
1 20.8776 18.4607 30.4452
1 27.9232 23.3141 20.5224
1 14.1084 1.10906 15.5214
1 31.0561 32.6821 26.4523
1 44.1822 28.945 46.7056
1 0.44025 17.4551 23.4893
1 30.693 21.9688 44.9853
1 47.316 41.925 36.8214
1 12.6924 26.9178 24.2499
1 31.1127 30.9061 9.94937
1 31.2715 36.4868 9.19682
1 38.3281 48.2958 14.8877
1 29.9311 40.2502 16.238
1 3.27545 49.3428 41.4466
1 17.0356 16.4502 16.8005
1 49.6043 40.0962 12.0447
1 25.0094 2.86914 4.46135
1 42.6584 47.1795 13.0981
1 48.585 2.06941 33.4867
1 41.3077 48.3416 21.9133
1 35.599 0.765064 31.1018
1 33.9064 13.6631 15.6323
1 13.7981 28.8707 3.26818
1 42.4797 15.2028 42.2987
1 12.4262 36.9427 22.7219
1 26.072 29.2837 3.22753
1 29.47 35.9825 11.4079
1 36.5805 14.1574 17.5266
1 20.4458 26.3186 41.0649
1 48.8939 41.5152 6.06476
1 14.801 46.8813 40.9535
1 33.1801 30.3849 30.0363
1 28.8451 30.1951 30.3814
1 13.7296 30.7328 41.8513
1 37.1446 21.7359 14.3815
1 16.3932 45.9073 27.0741
1 42.1254 28.9534 42.4461
1 45.4197 42.8585 17.7798
1 5.90074 47.9205 17.8674
1 42.9832 27.5622 24.3949
1 42.5105 31.7481 8.29014
1 29.6809 37.0063 15.3236
1 10.0899 33.4001 31.4515
1 17.2531 11.0947 35.2102
1 13.3616 49.3229 25.3186
1 20.6707 42.2661 6.91489
1 36.0111 34.4753 42.5796
1 36.3627 41.7029 43.9936
1 26.1943 1.6569 34.3699
1 27.8383 49.5729 2.09573
1 20.9464 42.0435 12.3923
1 35.766 34.7127 5.65335
1 3.48551 18.744 12.1279
1 40.472 41.1803 47.3474
1 22.8351 15.7642 29.4601
1 33.8711 33.9928 44.533
1 49.5542 35.0578 47.493
1 16.927 35.5794 8.66736
1 39.1087 31.9563 38.1079
1 38.203 20.2395 28.3694
1 33.2476 4.98233 13.4386
1 14.3449 29.5002 44.0765
1 45.7383 17.9661 9.31271
1 36.7351 48.8198 16.6978
1 49.0745 47.2386 21.3647
1 10.3512 36.4745 15.1575
1 30.6042 24.1377 43.1624
1 2.77169 7.52742 36.6529
1 47.05 10.9442 38.5902
1 43.2592 44.8661 43.2097
1 29.1406 40.5796 6.49688
1 20.9062 39.5412 25.6793
1 5.78813 5.5101 28.8096
1 18.8529 4.13876 18.7318
1 3.4517 42.2237 29.5513
1 24.3595 35.8532 7.89857
1 4.18562 36.611 44.2348
1 39.0503 17.2363 36.9802
1 29.7281 8.53385 12.5007
1 46.87 33.5714 13.434
1 1.71646 40.6207 5.6359
1 17.7781 37.1963 37.7635
1 22.0037 0.829482 35.0707
1 27.7994 22.9213 39.6012
1 28.2566 39.2212 46.6641
1 24.3873 26.9457 3.71651
1 17.5512 9.55769 24.6452
1 5.86499 43.7273 45.2676
1 23.8593 37.8342 32.525
1 36.9039 7.0981 23.5579
1 24.0958 8.74056 22.9749
1 10.8944 -0.14551 21.577
1 10.9153 18.8523 42.8947
1 44.2521 24.9224 26.7972
1 27.4001 37.3799 21.9751
1 21.6566 29.0486 14.097
1 27.2958 34.0481 24.6725
1 33.7735 13.2726 1.01578
1 47.3783 5.05593 8.17429
1 38.8391 30.5364 32.138
1 16.8723 18.3122 32.594
1 39.1649 4.41448 41.4583
1 43.0986 17.6514 41.4121
1 36.6895 44.4143 26.5905
1 29.7742 26.9064 3.70074
1 12.8008 0.178064 8.0119
1 23.4448 17.9756 45.5093
1 11.1661 27.0284 15.1866
1 30.7243 47.401 41.5935
1 2.40908 12.5248 21.8197
1 14.4262 19.0335 1.8575
1 0.609158 47.081 40.609
1 38.1205 7.19851 36.0946
1 7.48197 15.8182 11.7324
1 31.3678 28.9119 11.7404
1 0.441313 12.6533 31.188
1 48.6094 48.9464 47.3702
1 30.8797 19.458 16.1737
1 19.7 34.2469 16.7684
1 35.6349 45.9572 23.0165
1 47.6603 19.6077 20.8284
1 47.4054 35.7279 42.5324
1 1.9606 6.11187 38.6571
1 47.7667 20.0802 18.126
1 40.749 19.1903 36.0848
1 48.2652 22.7013 33.9729
1 10.8759 46.573 28.1499
1 14.3495 38.1978 15.0408
1 40.7128 41.5482 2.65094
1 0.711872 22.9069 46.5114
1 20.8416 41.5071 23.7014
1 9.78974 22.7265 13.378
1 15.1636 48.8374 32.8292
1 44.3413 27.5562 34.5823
1 19.6193 16.1692 16.1858
1 24.4533 25.0974 47.7153
1 3.11632 21.7921 31.3677
1 29.4184 4.52293 27.8083
1 40.6561 44.1614 26.8595
1 46.5357 10.0507 16.8178
1 13.9926 29.9707 27.2784
1 12.4348 27.3253 44.3675
1 38.8635 38.4851 16.98
1 28.8541 9.02707 0.88134
1 7.95457 34.848 9.65981
1 32.6354 32.6459 38.3224
1 9.77606 40.2932 38.2001
1 23.9136 27.8755 28.2834
1 6.23606 9.20019 47.7638
1 11.9114 3.7822 15.9312
1 22.2262 1.39891 23.0588
1 15.3775 22.2124 17.1263
1 14.5679 18.8357 24.3412
1 13.2857 46.6465 22.0984
1 12.911 5.97643 31.2167
1 46.8045 37.97 38.9959
1 21.0859 16.0563 41.6962
1 31.496 41.1433 2.6584
1 39.4231 41.4959 20.553
1 12.2571 24.9041 39.1391
1 8.96392 11.2836 48.7594
1 4.73862 31.8794 21.6613
1 16.9484 26.702 5.43004
1 2.7863 30.0585 6.94115
1 5.24572 41.7379 37.7131
1 5.55305 7.88076 10.337
1 23.8511 14.6622 40.7844
1 43.5242 7.67098 25.2622
1 40.2474 11.0994 29.4875
1 8.4832 17.8115 30.8732
1 30.509 36.5733 26.6519
1 12.4331 13.4772 19.9655
1 4.54372 16.4805 40.3192
1 12.0166 35.7177 11.3755
1 18.2337 30.3448 45.6758
1 2.14148 26.0385 48.3999
1 43.0237 15.9523 24.7682
1 46.8047 13.5444 19.1992
1 42.9458 10.9167 34.5851
1 0.542701 1.87215 26.346
1 2.8985 32.7057 32.1933
1 14.1328 29.2952 33.4884
1 33.598 15.579 19.4826
1 3.98622 18.0172 24.9124
1 3.24197 42.1474 7.59669
1 37.1462 3.23151 9.78365
1 22.1253 48.6003 27.5829
1 13.6832 10.135 32.905
1 38.4475 0.80648 4.33698
1 43.8157 35.9153 31.4661
1 24.0948 3.04606 14.7882
1 4.45742 41.7153 18.0036
1 25.4302 21.6289 37.3086
1 1.38717 26.5629 27.0391
1 26.7658 9.96206 2.20737
1 10.5521 2.59521 48.2361
1 14.6256 25.5655 25.5755
1 7.85034 1.05701 48.4123
1 43.2704 18.1966 0.420368
1 10.0505 13.679 47.5325
1 11.4097 46.859 15.9467
1 48.8348 37.6696 43.2325
1 42.1199 4.5143 0.394229
1 10.4868 13.4761 17.7464
1 24.0231 36.5244 24.9685
1 6.04871 41.5935 0.540947
1 33.9036 29.6654 21.8703
1 4.10246 13.729 38.2901
1 49.1364 42.6446 38.7535
1 13.8641 10.3057 37.5913
1 40.7739 5.67702 3.96164
1 23.2813 38.0056 13.5162
1 4.63077 13.303 40.9045
1 23.1242 2.9485 28.7306
1 41.6296 8.31551 33.583
1 16.1891 7.05632 34.4051
1 25.2907 44.694 2.16299
1 30.3719 28.1245 20.7601
1 31.3673 1.61254 19.4794
1 44.5202 6.1143 20.8329
1 44.9787 9.03345 48.4352
1 1.78041 11.1418 15.0266
1 10.6217 23.039 20.1657
1 23.7963 1.15027 8.00003
1 33.1979 5.39445 24.8768
1 48.3917 45.1916 29.1059
1 35.7652 21.9882 12.2428
1 28.8368 43.7089 40.1128
1 19.9827 19.175 20.5525
1 32.5018 22.4539 14.9316
1 33.2614 10.4391 35.2856
1 19.9865 45.9504 17.4442
1 17.2051 17.3394 28.8907
1 40.7526 33.4171 33.8773
1 17.7951 10.9684 45.2228
1 7.0231 3.20418 20.2409
1 36.2392 24.0273 25.9893
1 11.0555 26.4453 28.0562
1 5.82717 44.1898 -0.00255397
1 26.7299 15.5633 24.3025
1 18.7562 17.2097 31.3717
1 4.46982 25.1624 17.001
1 22.9053 36.0574 15.3916
1 15.826 13.4326 38.6881
1 10.2139 29.3112 24.3452
1 32.726 19.7883 30.169
1 8.09165 0.17309 14.6444
1 15.6258 37.2224 33.3664
1 19.7919 4.34866 41.8565
1 10.3003 42.1814 1.64843
1 33.6683 26.9193 49.4866
1 42.0933 23.0516 35.5232
1 0.0968005 5.8805 48.695
1 7.52039 41.6277 13.6469
1 17.6496 17.3633 5.42581
1 46.5133 41.4697 33.1452
1 39.9566 6.519 1.51941
1 3.13927 45.3637 24.2152
1 8.77492 48.5746 30.0245
1 41.1169 43.0516 16.5905
1 30.1803 12.8741 42.204
1 9.87471 27.6078 8.74508
1 10.3935 31.0804 5.45464
1 44.8714 40.083 4.75159
1 49.1651 32.705 4.61203
1 15.1952 10.9877 15.8675
1 32.6298 23.2056 9.82711
1 40.0519 35.116 14.2964
1 15.6297 27.6759 28.1656
1 3.72542 48.7588 36.6314
1 12.9848 9.7788 16.8596
1 5.65739 28.5924 15.1628
1 28.1138 8.92465 39.8108
1 9.37072 45.5939 42.632
1 26.7734 36.801 25.0739
1 7.42176 42.3398 26.2669
1 24.8076 16.8102 2.06892
1 12.1309 49.2726 35.0894
1 5.35439 34.3044 17.3872
1 8.60276 16.194 41.7238
1 6.15688 9.53051 39.0855
1 17.4979 5.4593 42.7939
1 34.3407 28.053 7.33936
1 39.562 38.5631 28.6687
1 46.813 40.1057 13.2761
1 0.927514 41.5305 28.8633
1 30.3997 32.9583 15.9629
1 36.0307 32.0706 28.5011
1 3.90406 8.89239 46.8228
1 46.9618 15.6993 10.0293
1 8.29578 0.336789 38.1246
1 5.44215 4.78332 43.4281
1 31.9249 12.9473 29.4948
1 32.7529 14.5392 46.1896
1 16.9018 32.8234 26.3322
1 44.194 15.01 47.5444
1 1.22591 29.5776 19.8107
1 9.74242 6.12921 21.8082
1 10.2883 3.02556 38.4062
1 27.8445 19.404 26.7905
1 18.2577 44.8668 46.2856
1 11.1159 3.28032 13.0965
1 26.6096 9.7039 35.9384
1 49.098 5.05599 45.8077
1 42.7572 48.5813 37.8304
1 15.7164 30.5188 17.3139
1 27.9363 41.1185 44.7242
1 42.8502 45.9409 38.9631
1 26.0358 9.81715 47.528
1 16.4719 15.4015 22.4096
1 15.196 31.1402 25.2453
1 20.8364 18.289 34.1455
1 8.61023 42.5467 18.3521
1 31.7209 38.5247 48.9912
1 36.6647 26.3338 36.6558
1 19.2414 34.4482 20.7618
1 29.6578 35.2622 30.753
1 37.0389 29.6035 28.3857
1 17.1415 29.785 48.0093
1 38.4267 14.698 47.8277
1 23.0065 22.8646 2.71081
1 34.0187 28.6114 33.7637
1 43.3989 24.7983 44.7934
1 39.6491 38.4037 1.27185
1 14.8447 14.4757 5.25612
1 48.3883 44.3298 10.1444
1 23.9622 5.68927 10.1142
1 48.0573 47.715 30.2226
1 25.943 25.4973 9.1904
1 38.8444 42.6182 36.7815
1 31.0517 28.3194 41.1627
1 21.1114 16.9957 10.0784
1 7.85651 34.1913 16.0638
1 20.6372 46.6193 30.9574
1 26.4693 19.3895 12.3049
1 13.5566 31.2283 45.7842
1 23.9494 42.2175 6.1882
1 27.6266 47.836 23.1646
1 5.15291 18.8624 33.1586
1 32.1346 33.9299 10.208
1 18.0742 42.165 3.11054
1 16.0246 19.9055 3.51442
1 34.4666 35.9734 15.2278
1 41.3757 31.6705 41.1713
1 38.424 42.4732 26.7323
1 28.0139 17.016 8.81071
1 23.2216 9.80157 9.75907
1 29.4992 18.1838 35.4099
1 46.9872 22.2975 -0.0566465
1 11.3237 33.2086 19.6321
1 44.1576 39.2692 30.6432
1 24.2854 23.1373 24.2494
1 19.6096 29.2066 28.0747
1 4.1368 12.4086 31.372
1 11.3346 23.2403 42.5337
1 22.779 7.816 11.6806
1 8.33812 24.0685 33.7644
1 29.5153 1.01583 17.186
1 35.5148 14.1006 37.1363
1 29.5799 7.25806 46.7106
1 33.818 17.7385 0.618694
1 15.7881 35.0509 26.9755
1 17.4545 14.6063 9.92401
1 1.75454 47.6172 15.4165
1 47.7627 7.21695 39.2481
1 6.3321 47.4728 47.2291
1 1.31758 21.789 7.60421
1 26.6767 47.278 27.2413
1 6.05289 3.24484 36.9216
1 20.7334 24.6346 7.66991
1 38.0045 23.2996 21.7066
1 29.5328 44.8376 14.7789
1 34.0978 25.4485 36.2208
1 37.0234 18.3312 16.9986
1 44.8806 38.1412 16.2001
1 42.1623 35.0928 35.3928
1 23.9381 38.0772 46.4883
1 19.5405 29.9962 20.689
1 4.92965 5.50517 6.76003
1 45.739 1.31076 0.172485
1 1.12464 26.8933 35.2552
1 7.67233 28.5974 13.2695
1 11.8433 10.0437 12.4356
1 21.8341 2.67784 25.3573
1 39.3768 45.9756 20.1684
1 8.29 40.5344 45.0004
1 22.5702 32.0325 6.72727
1 24.4692 43.0829 33.2451
1 40.8654 28.3314 15.1116
1 11.4076 46.1215 23.9724
1 16.0683 3.628 43.9323
1 20.1523 12.0357 36.0156
1 45.0545 4.60228 39.5171
1 11.3371 5.87339 28.8815
1 32.796 9.72072 41.893
1 31.2041 30.7109 22.9854
1 4.47221 47.136 44.9278
1 14.2421 29.3421 11.8339
1 32.6205 3.12211 29.9932
1 23.8561 34.9704 22.466
1 48.9171 0.844727 43.5002
1 -0.00966753 6.88601 17.9224
1 39.7319 37.6871 32.9469
1 29.8083 13.363 14.0291
1 3.11347 19.8722 47.4191
1 31.6783 8.29988 3.50244
1 48.6149 47.4166 25.816
1 8.5608 21.3532 0.745818
1 35.8891 35.29 19.5449
1 31.243 35.9172 24.3369
1 48.5349 35.369 27.6168
1 22.1453 17.9671 14.1195
1 42.7133 35.6212 22.2187
1 40.0758 31.2111 9.26588
1 24.2928 18.5797 30.1473
1 36.4553 42.8501 38.5977
1 35.4549 26.5351 9.41982
1 7.9393 47.3054 38.8935
1 33.9246 5.5361 18.819
1 26.6269 37.2589 32.6324
1 24.5965 27.993 40.8087
1 20.2424 41.1674 35.9544
1 25.2415 19.4039 23.5711
1 29.1988 35.0213 37.7363
1 5.7829 35.207 20.2945
1 38.4561 35.4294 0.849879
1 31.8764 48.0506 46.4627
1 24.7807 10.6899 30.9392
1 8.85021 7.34783 46.9925
1 17.3698 22.5403 36.3295
1 13.8153 9.10738 44.6995
1 34.2108 37.9019 9.02754
1 33.3052 24.9342 25.03
1 9.78553 19.255 32.7874
1 18.1034 0.361443 17.3959
1 39.1287 6.45005 11.4982
1 11.0382 26.9258 40.7302
1 26.3271 8.09801 4.05367
1 37.9425 1.38142 46.6051
1 44.8337 10.2397 27.4968
1 44.2258 32.2557 33.7636
1 1.22831 34.8868 4.08038
1 44.017 31.2719 26.6277
1 19.1341 47.9526 13.2337
1 13.1192 39.8966 49.324
1 45.9074 41.1676 24.113
1 7.90349 8.55887 1.67
1 44.2552 3.62454 20.5367
1 28.291 48.1907 11.7111
1 19.6677 25.8616 43.4498
1 40.7133 0.399211 7.18427
1 37.6808 3.43945 0.872082
1 6.49583 33.4978 26.1144
1 22.28 40.4172 40.1027
1 28.7515 46.5285 39.9147
1 23.2062 40.9848 27.2379
1 43.5909 32.8862 44.0892
1 48.0297 3.43334 48.1435
1 40.9722 26.671 17.5897
1 29.274 24.1932 22.7294
1 32.865 46.6899 7.94357
1 36.3046 24.9149 28.6595
1 13.6649 25.8025 14.78