4096
 Atoms. Timestep: 126800
1 40.7818 6.31901 1.76003
1 3.05719 44.9842 37.5877
1 19.628 21.3175 7.9204
1 16.0378 27.6767 0.570098
1 12.4245 25.3093 11.215
1 13.086 24.1332 4.67523
1 26.4462 13.6025 6.2132
1 34.5715 25.0982 2.33276
1 40.8552 45.8017 5.42043
1 48.1149 33.9926 6.97843
1 46.2465 27.8552 29.3563
1 0.29887 23.3278 26.0474
1 45.0666 8.88732 6.79081
1 46.6174 19.3617 40.3025
1 10.4167 18.2834 48.9373
1 2.86441 30.2769 24.8812
1 20.9513 21.7622 27.5952
1 31.0988 46.2801 46.6628
1 25.8046 31.2891 30.4973
1 45.6311 3.86998 16.4637
1 29.5997 16.6933 21.275
1 13.553 25.4808 16.5941
1 7.42185 6.79228 31.0769
1 8.77298 48.525 2.22731
1 2.63685 19.4114 20.5659
1 8.04538 29.8568 17.0289
1 16.0127 29.1232 46.8785
1 5.19344 39.22 4.85385
1 24.8293 12.1114 39.5026
1 7.0147 35.0638 3.63633
1 41.896 18.9297 27.1124
1 29.7905 41.44 22.0879
1 23.6749 3.66289 37.9244
1 20.1984 9.9566 3.7576
1 20.1707 25.3605 46.1856
1 26.6729 7.8379 12.9538
1 36.1163 22.0848 13.9028
1 30.0021 15.2592 9.99184
1 13.4792 32.6922 19.3821
1 34.3044 26.8568 -0.0556623
1 8.98183 12.5571 43.8346
1 1.86466 13.3084 39.062
1 15.7556 10.9667 19.2941
1 37.1846 35.3354 3.00347
1 3.71404 30.4753 16.7742
1 38.0049 5.06922 30.6282
1 44.1925 21.4924 41.169
1 0.185987 42.9748 7.9721
1 21.1295 15.8563 8.81883
1 35.4464 6.17918 14.7735
1 4.04112 3.43397 45.0665
1 14.6053 23.3553 38.0621
1 41.1616 16.9554 11.3837
1 48.6699 7.62234 49.0093
1 20.941 11.9057 21.9575
1 26.8643 47.5071 10.0199
1 39.8045 21.3321 46.9541
1 5.17926 2.4427 23.402
1 21.3078 4.82487 36.5183
1 4.71988 4.96674 6.95352
1 40.7733 32.5257 34.618
1 13.7209 17.9074 8.61681
1 24.0193 4.41114 6.2575
1 16.2135 37.8062 2.33632
1 18.951 16.9285 1.81851
1 39.6341 27.3424 34.3868
1 7.62995 44.8513 37.6307
1 47.6535 23.9004 15.0002
1 33.4158 37.2518 1.52767
1 3.73977 6.28562 47.9883
1 30.7371 0.0242863 35.088
1 26.2622 17.9072 8.74682
1 39.7167 35.6027 47.6889
1 45.7822 5.17748 47.9023
1 12.6504 6.34449 14.0778
1 12.8347 9.40853 12.8327
1 36.2693 45.8711 32.1959
1 9.50289 13.623 30.77
1 38.9634 15.6534 7.43233
1 19.0293 26.0084 12.6625
1 26.3046 23.4553 38.9819
1 17.2262 18.4867 43.9191
1 4.21904 9.34143 29.8018
1 44.2583 25.0761 47.4201
1 47.0057 22.1171 8.87602
1 9.57967 5.88684 19.7566
1 3.90948 3.41031 0.862696
1 5.77207 17.9629 10.7879
1 7.11708 6.63518 14.2448
1 24.9525 1.43089 23.3202
1 26.8656 30.5338 44.6944
1 15.3492 31.1312 27.479
1 21.6005 47.2422 9.73812
1 22.1115 5.10362 31.5254
1 42.9639 49.213 40.3043
1 19.5676 0.0169983 14.7511
1 47.6279 38.1332 30.1117
1 7.57884 15.747 28.697
1 23.4841 45.2169 31.6451
1 30.0554 42.6588 16.7912
1 16.8865 3.0437 40.9215
1 20.2353 27.5736 42.5143
1 28.7031 2.64587 18.8237
1 19.635 19.635 1.07564
1 4.29624 24.876 17.288
1 42.582 26.6347 25.8259
1 29.042 24.521 28.56
1 18.7336 30.325 46.2197
1 42.1137 38.5047 21.7134
1 8.02256 11.2191 0.586719
1 45.7155 19.5281 44.4126
1 46.2204 13.007 38.396
1 18.9704 24.7075 41.4174
1 7.15439 39.9678 9.36913
1 29.1603 0.525417 39.4761
1 5.00021 20.0136 22.0876
1 8.86837 28.3113 25.1072
1 2.36869 12.9023 41.7599
1 11.5691 39.8118 38.9555
1 16.4957 31.2394 48.8582
1 35.1975 1.42993 32.8021
1 20.4272 42.5588 42.5918
1 25.3162 23.2977 36.0237
1 27.4719 38.1932 37.719
1 43.7918 22.6088 46.8148
1 47.8259 1.06765 0.332053
1 23.7165 5.11024 43.053
1 18.9001 45.4347 49.1974
1 15.8808 6.53313 37.3274
1 49.2873 16.5124 15.9682
1 24.0161 47.4055 48.9155
1 15.1961 21.0879 0.589105
1 47.0441 5.53129 9.73698
1 32.6212 32.2098 41.6375
1 33.7902 10.7199 8.19527
1 28.9683 7.02014 2.32971
1 45.7128 2.68496 27.8259
1 29.1515 25.3403 37.4091
1 30.6891 20.2341 27.1763
1 33.1451 44.5113 11.3735
1 34.9637 9.62927 26.2496
1 31.9618 30.736 39.4804
1 23.5057 16.8867 27.8281
1 40.5823 5.70527 20.749
1 5.75136 39.7537 31.6783
1 0.281087 40.4103 44.583
1 8.87537 35.8949 42.7842
1 48.4133 47.9669 14.6772
1 5.33987 33.6265 27.5844
1 39.5053 5.3614 39.1917
1 7.16779 33.6481 46.1123
1 18.2164 16.2018 48.8445
1 44.7945 28.0042 11.592
1 29.2777 5.01152 21.3956
1 20.6022 30.2564 37.406
1 8.1211 18.2902 9.40758
1 5.98336 7.13879 49.5861
1 3.76276 43.0489 48.7619
1 7.0228 41.552 16.9313
1 46.0336 17.3106 2.58369
1 12.6824 4.176 6.16545
1 9.21516 6.71497 7.71147
1 48.3166 34.8614 14.7136
1 2.97515 22.4285 23.2083
1 11.7675 34.8447 15.374
1 3.18542 9.31577 45.0741
1 26.3617 12.2411 11.6082
1 33.8457 45.4474 39.6863
1 43.1094 -0.057172 37.4183
1 33.7123 24.0351 20.4546
1 21.5968 19.4474 9.31956
1 11.1288 47.1667 20.166
1 49.5745 23.5975 17.157
1 48.081 35.5238 32.2673
1 11.1323 42.3339 3.17951
1 1.63848 15.2913 2.90085
1 2.87976 9.40034 17.6194
1 41.5168 10.8172 2.25377
1 43.2784 21.5632 3.33033
1 8.76603 -0.131942 48.1579
1 21.4758 34.6347 18.0166
1 1.74986 45.2866 4.41385
1 10.002 0.349452 9.98673
1 28.2237 26.1872 7.84071
1 18.1323 24.5661 21.1468
1 4.12758 14.0456 7.38147
1 43.5096 18.4089 41.3713
1 20.6424 10.8155 40.2913
1 19.5851 11.5397 16.1518
1 19.4995 43.6585 21.005
1 27.6191 1.96439 37.8214
1 8.38978 12.4143 17.6867
1 26.4161 48.5476 25.2329
1 11.789 31.6068 44.1365
1 7.10797 8.15903 16.4375
1 24.789 21.7414 27.9545
1 16.7966 35.8618 24.467
1 28.0249 45.4069 36.3919
1 21.9551 43.9523 17.5091
1 19.5197 39.2838 22.7456
1 19.0968 18.6362 36.2903
1 10.804 42.9688 29.0031
1 0.44527 20.4886 30.5629
1 19.5372 10.8781 48.9643
1 25.2444 28.8218 28.9046
1 11.2081 12.1619 45.6662
1 14.9873 48.6303 20.3681
1 22.6521 22.7052 8.49967
1 21.9926 -0.0634185 13.7874
1 29.4762 3.17258 1.87897
1 8.37023 40.7874 24.0451
1 24.3183 9.89563 38.1536
1 15.9548 3.85696 14.8627
1 21.7852 43.6161 8.44071
1 42.7672 39.4051 7.49418
1 11.9845 37.2544 18.8653
1 7.31436 25.2938 19.2697
1 33.4531 15.9897 2.30453
1 33.7448 42.5062 31.4344
1 1.44647 14.3249 32.2431
1 10.8945 13.7139 22.6367
1 6.13275 12.4361 5.63778
1 3.98405 39.1186 43.2704
1 47.429 46.5968 18.1384
1 4.79151 30.3737 9.21438
1 30.2074 7.15817 25.3291
1 4.04717 18.2412 31.0975
1 9.97773 20.5283 15.1452
1 21.6471 15.2132 2.71506
1 49.375 12.0682 10.8554
1 16.5497 8.16631 27.9714
1 14.9769 37.3672 5.85799
1 1.09267 2.96396 43.3995
1 30.9935 37.6386 30.4228
1 26.7699 22.6434 31.8852
1 3.76673 28.259 26.6095
1 47.253 15.7128 37.0878
1 38.8618 30.5494 47.9007
1 38.6863 16.5058 12.6439
1 10.528 21.1355 25.6702
1 21.9321 12.68 11.8887
1 28.1127 17.4635 36.9003
1 19.9925 7.11935 27.9421
1 20.0427 21.9271 41.6963
1 15.8948 45.0696 28.0793
1 16.5992 0.50133 23.8785
1 43.3908 44.7806 30.8434
1 29.5143 28.629 42.0835
1 40.3402 26.0248 31.923
1 15.0863 30.1313 12.937
1 0.90121 44.6418 24.6862
1 1.92776 5.33087 1.46449
1 31.3813 44.2229 27.8567
1 31.6291 1.12899 11.4097
1 48.1381 40.8391 25.6579
1 11.3102 34.3743 26.0125
1 19.8316 17.8604 10.4234
1 11.994 12.4131 29.2134
1 46.0702 -0.0357599 28.369
1 6.27292 10.6792 16.0062
1 9.58133 28.4464 30.7667
1 33.9037 47.0478 30.4471
1 15.0628 43.5289 34.8411
1 6.31469 22.5413 13.0527
1 38.1532 7.21501 41.0678
1 10.1339 10.376 47.7218
1 37.3526 11.3192 0.173956
1 29.9319 6.84072 10.3846
1 31.0372 19.323 20.028
1 47.2512 10.9952 31.2324
1 27.1915 0.869703 17.1607
1 8.5358 40.9997 36.1695
1 14.6753 20.3337 27.0902
1 44.1822 10.4262 16.1564
1 16.6638 14.7219 12.6561
1 47.3747 27.5694 17.4866
1 10.835 29.463 28.3078
1 39.2458 9.33342 17.5131
1 35.4044 3.81111 40.2997
1 46.6681 4.63778 39.8918
1 18.1976 23.3289 8.83153
1 9.04522 16.0135 26.3275
1 11.0136 0.728414 36.0782
1 10.5747 28.2831 3.77347
1 49.7415 13.6584 28.2056
1 14.8098 39.7031 29.8245
1 28.0201 36.4836 45.1562
1 9.91751 4.393 42.8173
1 21.0636 33.8859 22.7708
1 0.382609 39.6078 30.088
1 1.51969 27.0282 23.8456
1 10.5241 25.3194 41.1387
1 6.54098 16.7404 31.9206
1 11.457 45.6079 15.4457
1 49.3926 32.5888 31.8464
1 33.4282 13.2612 33.6389
1 9.68371 7.92492 38.5856
1 43.2808 33.141 30.8526
1 37.6121 0.910845 17.6597
1 2.08699 48.4095 13.5146
1 42.3729 43.1717 1.95466
1 32.53 21.6636 18.735
1 31.06 27.5961 49.4134
1 44.0248 10.0992 42.6573
1 7.82649 25.588 2.09182
1 10.6667 38.2538 34.2051
1 0.3221 28.4677 1.2116
1 41.5431 20.2568 43.6897
1 25.0139 3.15018 46.6553
1 5.87459 2.66002 46.7826
1 24.3076 43.6539 11.3643
1 12.412 10.9717 16.0365
1 30.4842 22.6712 36.7737
1 7.68958 6.0389 9.86891
1 27.5166 48.0484 29.9034
1 33.2363 3.23446 11.8194
1 20.8138 34.1341 9.30161
1 5.39313 8.24206 41.1095
1 10.3485 4.59649 25.0156
1 13.0407 9.49169 8.55137
1 6.08492 43.1571 5.39491
1 3.507 31.9679 37.085
1 42.793 18.9021 17.5656
1 26.147 12.1285 34.9782
1 2.41886 1.47143 49.2944
1 45.2641 42.4592 12.6683
1 33.9903 6.88632 20.736
1 11.7388 33.8245 20.8297
1 18.6008 11.4272 1.84726
1 9.36817 11.0925 9.18714
1 34.6022 22.4821 42.2466
1 38.0774 3.24528 40.4745
1 19.416 25.3474 36.4112
1 43.4693 7.97201 17.2477
1 36.7449 1.23857 21.7282
1 47.189 0.00663841 38.6166
1 19.405 25.9775 2.16604
1 33.1544 49.7275 9.33681
1 14.3926 8.02372 5.4342
1 34.1399 6.15534 41.2095
1 6.19281 20.0509 17.8532
1 0.443364 8.67061 38.0553
1 49.446 23.4799 21.0185
1 3.57175 32.9061 23.6055
1 39.0971 32.7426 21.0687
1 4.7401 33.1533 47.2997
1 30.2334 2.84541 22.6063
1 37.0053 41.8775 34.1054
1 28.3222 13.7374 24.5318
1 45.8642 20.8076 31.7283
1 36.9819 25.7183 26.6693
1 33.6208 31.2425 18.1142
1 46.9077 7.61584 47.2129
1 8.20371 1.54729 45.5269
1 17.0556 34.2102 6.59451
1 15.7493 7.72127 25.2607
1 5.23451 35.8478 20.7083
1 2.91227 1.23551 17.7821
1 22.3626 23.2309 21.3282
1 33.8336 48.8601 38.2501
1 34.4389 26.9343 34.605
1 1.13275 39.2681 22.9738
1 32.7046 2.9091 32.9036
1 12.0303 16.6448 34.4692
1 5.44975 6.17204 37.323
1 26.5522 49.5992 12.4672
1 9.42346 7.88484 29.8526
1 28.6218 1.38979 46.5846
1 10.9042 17.2381 21.4379
1 41.2103 48.0117 32.9557
1 28.8706 48.8117 16.4082
1 19.3717 19.4657 13.9246
1 24.6971 25.7731 29.6541
1 33.3146 5.45917 31.6025
1 47.956 28.1248 13.8054
1 45.8022 43.4286 24.4353
1 40.6978 13.7538 20.5733
1 2.19422 24.1968 40.492
1 40.1513 25.6301 23.9244
1 43.4628 37.4159 25.6745
1 27.6789 47.2299 43.1375
1 1.73765 20.101 46.3182
1 40.7881 27.0879 27.9899
1 43.0293 47.853 6.12442
1 2.85749 4.61752 8.88099
1 5.62697 36.3153 1.34924
1 47.6982 15.3434 24.5369
1 21.0956 35.1028 25.2252
1 13.955 10.9469 36.7084
1 46.7091 22.2687 21.2618
1 49.2333 47.2319 40.8807
1 43.7533 25.2016 41.8317
1 18.326 33.1443 45.6799
1 42.6335 47.1733 8.46477
1 3.59679 16.1583 13.8816
1 6.04644 31.4239 16.182
1 31.2991 16.2976 30.6993
1 40.88 36.8396 15.8118
1 45.4845 39.9117 37.2608
1 17.4354 21.1946 26.3172
1 37.8492 31.9988 26.1567
1 35.1404 13.9215 31.6375
1 18.9918 8.33463 23.7395
1 34.6581 17.3147 34.8308
1 43.0719 1.0919 19.3445
1 4.53854 48.3644 29.6639
1 28.9532 34.1143 31.365
1 48.3972 22.3951 31.102
1 49.5288 21.0116 17.2801
1 43.0372 44.5937 12.8105
1 45.3505 29.1124 19.1464
1 5.13698 41.3927 0.86731
1 17.0454 34.3886 16.7453
1 34.0407 44.5037 33.2889
1 3.65106 39.6192 19.7228
1 7.68981 3.1003 43.0208
1 28.6213 18.9936 23.453
1 33.4334 45.3048 17.759
1 23.5602 48.075 24.7302
1 8.71497 2.4907 35.1956
1 14.2757 30.526 4.67134
1 0.903319 42.3234 30.9402
1 41.1547 30.884 20.548
1 1.77612 15.9471 39.0137
1 16.5121 20.9379 47.5124
1 7.85183 6.79065 4.25118
1 5.03932 16.5423 7.99666
1 35.9502 17.278 41.4509
1 21.7567 -0.0268634 11.1612
1 9.21336 2.73983 11.3197
1 27.9156 31.29 24.7819
1 37.0557 16.3091 29.286
1 31.2116 35.2843 48.271
1 22.4283 22.3878 31.8218
1 4.66363 8.49477 27.1625
1 39.4038 19.8324 13.5035
1 4.34765 4.60907 29.9868
1 44.1762 15.0103 8.9703
1 33.6045 14.7797 43.9766
1 47.1402 49.2148 30.774
1 45.402 18.3641 30.3914
1 9.6099 26.7136 23.0289
1 47.3824 10.2216 34.4588
1 8.62679 48.6941 29.6087
1 48.5884 32.5783 38.4949
1 26.0348 8.32729 19.4682
1 9.72901 15.3143 43.2423
1 46.0661 2.32988 12.8373
1 2.77569 37.7127 48.3103
1 34.1708 34.7778 37.9453
1 18.9906 39.0003 25.4033
1 0.450452 43.8314 28.6511
1 3.21665 16.5303 0.936695
1 44.9333 37.6882 0.175432
1 48.065 40.0323 19.2235
1 1.20982 11.078 23.3019
1 4.82616 12.8778 42.3998
1 32.9907 4.66449 28.9992
1 30.881 34.1035 16.379
1 35.9375 21.4276 29.4004
1 14.329 49.0377 23.0832
1 37.8968 38.9954 40.3422
1 36.2349 10.3106 3.70266
1 8.23988 30.1229 42.1007
1 33.1238 11.1842 46.1132
1 18.187 41.4601 8.00184
1 2.88742 33.8026 17.6349
1 27.7042 12.4815 32.5847
1 15.6582 46.0092 40.4074
1 27.0735 16.3398 38.8211
1 33.9755 18.689 16.6787
1 6.70716 43.8472 18.3943
1 24.5889 4.44694 34.6501
1 9.39853 16.655 35.721
1 25.5148 11.9716 42.0931
1 33.0972 24.8071 25.1393
1 13.99 8.87104 40.0775
1 2.29991 27.0994 33.2382
1 8.95653 19.4694 21.2987
1 8.28208 20.0949 6.58431
1 0.573849 21.0642 39.7814
1 48.1428 8.46548 42.1557
1 2.45441 23.9491 43.3378
1 5.03228 47.1868 19.3973
1 31.1484 1.98043 4.99775
1 25.4235 49.004 33.6378
1 37.8121 32.4589 49.2384
1 18.1831 6.55628 31.6649
1 35.7745 6.21518 32.2784
1 4.49278 30.2861 39.1009
1 25.1355 10.4682 1.23743
1 9.32721 38.2231 2.10432
1 44.6115 32.4041 10.6693
1 20.081 18.5412 41.1499
1 24.2282 19.5346 5.61249
1 46.5341 46.305 4.82534
1 22.8927 3.6181 18.6665
1 21.2862 10.0848 26.2389
1 3.6615 15.8144 33.5294
1 9.1178 5.21137 37.27
1 37.2572 38.6573 17.6723
1 33.2493 24.1387 27.9044
1 41.9957 31.8003 9.98477
1 6.68922 5.88483 28.4559
1 16.9315 3.71303 24.5598
1 7.57379 36.651 33.7661
1 17.415 21.5753 30.4617
1 21.7965 20.448 25.3058
1 1.03225 0.0188434 19.2126
1 18.55 6.80066 2.79383
1 22.8456 42.8025 24.7961
1 14.6229 34.5872 24.4981
1 25.2516 48.93 18.6449
1 20.3273 19.4681 30.5277
1 37.0118 21.4993 4.63594
1 11.2273 39.5381 31.5122
1 31.3096 4.65856 13.4274
1 33.9603 27.6878 11.6522
1 5.7529 31.4416 35.4634
1 12.4587 44.5017 35.0555
1 32.2498 4.27619 42.5357
1 8.7314 44.5475 27.6879
1 1.28273 33.3813 22.319
1 5.85437 22.8386 40.5088
1 48.7147 13.757 41.6433
1 17.2111 47.066 21.4434
1 10.4293 47.6912 46.8612
1 1.92008 14.0419 23.9773
1 31.3282 18.3003 6.13439
1 15.1502 48.244 36.0998
1 16.8084 29.0711 6.80355
1 14.7406 4.32333 17.2559
1 5.12532 14.453 49.5089
1 9.53406 27.8834 7.15437
1 29.2721 34.2213 46.1321
1 0.428919 13.6534 7.40073
1 23.9225 8.22012 5.34197
1 34.3671 45.353 45.0673
1 19.2864 13.9 10.0444
1 1.51789 38.1321 18.148
1 2.9578 32.1488 27.0184
1 5.08161 10.6757 25.6701
1 1.20316 4.0739 20.5988
1 22.721 15.2837 39.8469
1 24.3359 38.2605 6.67768
1 10.1717 12.5433 39.2408
1 1.48541 21.965 48.5422
1 1.05342 8.03835 11.979
1 29.6236 34.9598 39.0391
1 5.64064 49.0351 6.13391
1 17.9851 39.0983 48.6882
1 13.4801 42.3233 13.2482
1 25.3041 28.1493 17.998
1 44.2078 22.5803 38.8051
1 0.649266 0.88648 1.89256
1 8.10499 49.3083 21.9656
1 21.3443 7.27544 36.5495
1 16.6353 15.5606 7.6762
1 2.59363 49.0957 45.8612
1 10.8996 42.8013 41.9679
1 25.2553 31.4228 38.2302
1 0.506042 31.3986 20.4158
1 0.730695 47.6051 43.3595
1 31.3675 9.0657 40.9496
1 41.9288 42.505 21.8007
1 30.1172 24.8963 45.797
1 42.2869 20.8829 23.1408
1 25.9088 5.96808 37.0837
1 24.6138 15.8534 31.5445
1 21.9639 25.4947 13.746
1 39.3521 4.80555 48.1991
1 22.9765 32.8789 44.6816
1 48.1491 10.8998 5.12416
1 38.72 22.7539 20.7344
1 4.15555 39.1914 33.7912
1 27.5366 29.9706 37.9353
1 1.48477 10.5099 42.8806
1 2.65871 17.5975 28.6222
1 9.31665 20.155 38.228
1 5.08761 36.9509 34.8304
1 48.9498 42.0637 10.4278
1 11.199 18.1737 25.3516
1 8.89273 47.1971 34.1099
1 16.9347 23.7374 26.1159
1 45.4559 35.8153 45.0229
1 8.07893 45.9277 7.89197
1 49.7142 28.8019 40.8016
1 25.9231 11.0439 15.7336
1 25.8235 8.04538 28.4606
1 18.2703 0.826427 46.7864
1 36.4194 41.7925 14.2988
1 3.76064 27.5536 42.3066
1 44.8618 8.63085 3.24272
1 41.7496 38.976 45.6364
1 19.9646 14.1371 15.8065
1 16.1317 18.506 10.3596
1 23.2493 1.24949 4.89747
1 26.1137 41.1006 46.1645
1 0.231151 9.8344 48.0917
1 49.6723 9.40942 45.5547
1 20.6984 38.2727 48.1718
1 43.8534 33.8489 6.42554
1 21.4274 7.51699 6.31538
1 37.0335 11.4639 41.232
1 6.61964 13.2276 13.2334
1 15.6554 27.8593 14.6354
1 46.1496 38.3723 45.2344
1 17.4793 20.3691 37.6381
1 17.5587 45.5488 9.36885
1 14.8647 6.56891 42.6161
1 45.6325 32.114 2.40109
1 16.237 42.6127 42.9607
1 4.4368 25.6416 44.4466
1 0.532991 44.6565 39.7228
1 13.8949 15.1698 0.294345
1 31.0778 38.3503 1.02233
1 20.9218 30.3181 12.1885
1 38.6081 9.8384 30.5125
1 42.5047 47.447 30.7019
1 47.6277 37.472 11.1913
1 44.2935 14.3553 39.5648
1 41.1923 24.5343 38.4554
1 35.6689 33.7304 47.3679
1 6.25088 26.1014 39.7552
1 28.3359 18.2177 41.603
1 1.23505 47.3846 34.8615
1 25.642 5.39179 49.2115
1 8.65007 47.2565 36.9535
1 48.3725 16.6828 27.9768
1 34.6255 11.7434 0.25489
1 13.4271 0.0534785 5.51796
1 10.2867 46.744 28.5746
1 46.4725 26.3705 14.9542
1 26.3943 45.9639 26.2666
1 15.5697 41.3909 4.75201
1 44.058 8.3484 26.002
1 17.8549 6.1887 48.127
1 39.1022 30.4012 43.3263
1 26.267 47.3589 47.4151
1 35.0374 3.22787 44.9687
1 12.2122 1.72769 3.88026
1 26.1152 40.5464 26.4405
1 9.93584 23.9875 23.6842
1 21.8458 11.481 5.10877
1 6.21057 4.026 49.0318
1 42.0235 19.518 47.2709
1 42.8857 26.4286 12.9429
1 40.3106 45.8405 20.8144
1 17.4727 21.183 43.0156
1 45.4938 14.2857 48.1148
1 7.49129 23.7642 48.9539
1 3.33034 35.7343 3.00542
1 11.9192 38.1595 43.6222
1 27.2007 45.831 17.2505
1 16.3051 10.5121 48.3401
1 18.6656 6.05219 25.4478
1 36.9129 22.1991 44.1601
1 32.3984 27.3983 24.4855
1 23.8873 23.0596 40.1751
1 7.93973 44.8492 0.61231
1 48.1123 20.1027 6.95525
1 10.7251 0.229944 39.0581
1 15.5795 30.742 22.9358
1 2.33182 20.711 34.8675
1 35.606 26.8139 30.9469
1 26.4489 49.4833 42.6077
1 7.1056 18.6637 2.2947
1 49.4847 19.781 36.043
1 24.4426 23.8738 32.2368
1 30.8648 45.2965 36.0513
1 3.89399 41.7242 31.4229
1 19.4969 3.7587 38.1315
1 7.67494 3.46889 8.79235
1 36.8656 14.1025 41.1046
1 30.8305 10.9237 11.3929
1 2.25768 41.5527 43.059
1 29.741 12.2091 29.3071
1 40.7763 11.7225 30.2133
1 3.5234 2.93408 5.18543
1 40.7366 45.5781 43.623
1 22.2655 20.2324 49.2194
1 2.53293 13.4448 17.213
1 14.9149 35.2189 45.591
1 0.559291 7.13688 28.9675
1 20.3621 2.55091 19.4663
1 39.0037 38.9224 45.0474
1 35.1986 48.0316 10.7259
1 5.76869 37.7885 37.6009
1 46.2747 5.2636 14.2379
1 42.3896 45.3172 23.8179
1 42.0893 37.9785 3.392
1 24.0157 5.15574 12.8039
1 7.91679 48.2048 44.4545
1 26.4056 23.6471 17.9179
1 41.5459 47.3591 -0.0678024
1 31.5271 9.13377 22.3658
1 9.66897 25.6597 10.108
1 45.8419 24.75 4.35787
1 43.6788 35.098 46.969
1 26.2448 7.66481 9.03449
1 46.6208 8.26856 8.98612
1 30.664 44.4324 8.97191
1 23.7358 36.811 18.7256
1 37.508 25.9785 35.7888
1 29.9896 46.2228 21.5084
1 7.80636 20.6087 34.1243
1 46.2734 33.1222 37.2003
1 8.1336 38.6783 47.9678
1 6.47702 37.0448 40.1886
1 3.18888 48.37 41.7769
1 1.86436 24.6201 13.7323
1 47.7778 44.3105 16.8848
1 11.9495 44.4102 37.7814
1 29.3576 29.6917 17.6883
1 33.4956 3.87624 8.96172
1 27.2231 16.7285 11.4299
1 6.10882 22.6169 21.8261
1 17.8237 12.9253 6.24202
1 27.4211 13.7342 42.6989
1 9.86929 49.5733 16.8858
1 27.5751 15.103 31.6614
1 7.12233 38.2866 13.8644
1 43.4703 43.4425 25.7656
1 10.9286 0.981781 1.45076
1 21.0816 18.8133 21.0386
1 36.7526 45.2176 46.1771
1 3.83185 22.9575 2.43139
1 45.568 43.809 37.385
1 22.6553 32.0836 25.4649
1 31.1663 13.8354 32.3141
1 10.0343 21.0681 49.2139
1 2.87502 11.8682 46.5496
1 0.297313 29.9809 24.3507
1 49.2762 9.84725 29.7855
1 5.14421 45.1888 24.9668
1 10.1495 25.3609 19.0825
1 38.5538 2.06867 30.7942
1 27.3564 20.7304 34.0189
1 43.499 25.9274 3.51661
1 32.8686 26.8748 19.6853
1 29.5925 21.0262 13.3924
1 1.43906 30.821 49.1841
1 7.33673 30.3627 39.5446
1 9.87354 42.0968 21.4837
1 48.8294 33.5021 3.36717
1 8.041 28.5636 4.70933
1 15.5856 10.6292 23.942
1 18.208 0.586256 21.8034
1 3.02377 36.0513 5.57494
1 13.7103 37.5015 46.2364
1 0.128866 41.4459 49.2796
1 17.5876 48.0504 25.1837
1 31.2086 29.8679 21.5515
1 6.95956 35.6185 6.43327
1 12.434 3.97016 15.7778
1 17.5623 5.02837 33.6563
1 32.5645 23.207 48.4872
1 10.8466 29.0749 13.487
1 20.2359 9.3413 44.8028
1 9.58716 10.3409 2.71403
1 13.7301 7.16116 35.4717
1 33.1305 49.3671 26.5462
1 9.10892 37.6664 40.8537
1 11.8562 -0.121017 23.9741
1 41.6312 36.8948 32.3885
1 17.8225 47.0796 18.5632
1 35.6356 49.5254 43.6131
1 2.81041 9.17279 41.0804
1 5.23051 40.0031 16.2134
1 37.5579 30.412 22.1129
1 30.8895 5.38447 6.31727
1 14.3271 26.5814 28.0849
1 41.2694 38.3888 11.738
1 9.96379 21.5645 8.58408
1 12.2328 14.5417 39.0821
1 0.630847 34.014 13.0956
1 48.1186 17.5907 23.008
1 13.9768 35.812 37.7196
1 8.86365 30.6853 13.9794
1 20.6192 40.6005 16.0436
1 4.76242 0.202875 47.4742
1 42.2848 8.90565 38.9819
1 2.48019 27.1861 28.9733
1 37.8163 43.7167 0.888422
1 40.8541 35.8196 42.8951
1 2.95735 2.30986 24.577
1 6.57789 42.3511 9.74996
1 26.2591 23.4079 0.258252
1 13.8878 2.67568 40.1191
1 45.7087 46.1971 38.9478
1 32.9462 33.2922 14.9872
1 7.74927 27.8341 38.0252
1 33.8188 42.7112 0.395908
1 20.3729 20.9693 22.4963
1 47.8406 34.3837 48.4537
1 6.47869 28.9883 48.2115
1 0.676062 20.3572 42.3153
1 45.7664 18.4092 17.4721
1 46.6544 15.3191 12.8645
1 3.9638 20.7764 16.4936
1 19.9018 14.2533 27.1355
1 37.2012 0.677107 0.742989
1 14.1518 45.5711 6.22933
1 30.2976 38.8197 21.5524
1 20.9511 30.8978 44.2326
1 17.114 48.8012 1.70699
1 17.7527 28.3559 43.9476
1 5.65399 3.27512 16.1789
1 15.4433 0.382741 43.5025
1 47.4553 7.16975 22.9397
1 30.2813 31.6819 10.2747
1 18.319 9.18624 10.6224
1 36.1203 21.5676 0.924541
1 0.113081 3.2164 46.3501
1 35.4592 30.9286 23.7921
1 17.5268 44.8429 37.9666
1 48.1527 3.17221 23.7082
1 43.0839 11.426 32.0798
1 42.6389 41.3361 5.46746
1 47.7515 34.8108 35.4652
1 26.0666 32.3351 17.351
1 17.4837 22.4201 45.5251
1 37.4731 14.2646 16.9667
1 31.623 32.5506 18.4616
1 37.9347 19.245 47.8481
1 16.4236 32.1541 9.5389
1 12.9255 32.6247 36.84
1 13.1587 41.0332 1.15047
1 33.5412 10.686 2.56649
1 44.7595 23.0101 30.3633
1 4.71698 26.2581 22.8253
1 3.50242 12.6181 26.0331
1 19.6938 46.0762 22.4232
1 13.8053 18.6409 39.6376
1 39.948 47.8389 29.1263
1 45.9362 35.7323 27.4768
1 6.06221 49.5937 40.5975
1 8.63571 1.02718 40.9081
1 35.4794 42.1807 23.8507
1 38.8709 42.6888 7.50948
1 37.3662 27.2464 39.1876
1 11.4466 6.59993 11.9232
1 26.3727 27.7415 47.9749
1 35.4327 49.5235 14.5727
1 44.5219 11.2816 29.5645
1 0.936099 47.0638 18.3292
1 33.9275 38.1514 45.2059
1 31.6498 17.7739 39.5515
1 3.18377 26.9755 3.85079
1 49.5793 34.5563 1.0629
1 44.3624 3.12287 1.13193
1 4.18556 35.1527 49.0969
1 16.1 39.1727 46.8519
1 7.03548 26.9168 29.1601
1 38.4057 48.2934 36.195
1 13.7503 38.7349 1.90563
1 8.92375 44.0956 9.69775
1 18.7687 33.3338 0.728438
1 22.6675 15.0105 23.4073
1 35.0236 40.4894 10.507
1 12.5808 30.2167 15.1563
1 13.7362 25.4283 45.0751
1 20.4663 39.6405 2.25006
1 12.9289 4.47625 2.45954
1 23.4047 39.4529 48.9639
1 44.8508 5.03351 11.8418
1 3.58578 26.5107 39.7993
1 3.24766 2.12438 37.8905
1 4.90695 49.7417 13.5485
1 46.5585 11.9583 16.0715
1 8.34809 2.97438 26.3131
1 17.6907 14.8398 17.3804
1 10.0898 18.8729 32.9887
1 21.9864 37.4492 8.12317
1 32.7767 28.4085 32.676
1 15.6853 45.575 2.24077
1 23.3381 44.0503 3.80578
1 6.36721 4.05085 24.8572
1 47.8565 9.61297 27.4615
1 29.2766 39.9268 16.1184
1 5.51502 22.7507 47.1048
1 3.50748 48.6758 10.6084
1 42.1171 35.9646 10.4985
1 9.43596 29.6237 0.739522
1 28.7907 4.37752 45.1465
1 7.50926 47.0755 20.5247
1 43.5514 0.64532 12.7045
1 10.5356 39.3861 19.5151
1 26.0422 7.17519 23.4574
1 21.0519 41.0794 4.74706
1 44.7954 31.0601 12.8647
1 40.5312 23.6857 14.9891
1 5.77817 3.17483 20.8626
1 16.5642 14.4293 49.8193
1 34.9075 36.1223 41.4599
1 32.0711 35.4272 26.6416
1 10.8858 30.3362 20.7754
1 47.4875 1.96493 15.3558
1 38.3067 39.2063 4.72267
1 7.95815 20.3692 29.0544
1 43.4479 21.6999 19.6016
1 11.7498 37.6246 26.7661
1 40.5119 45.5164 27.6349
1 22.8321 48.3257 43.979
1 20.2321 8.1406 39.5601
1 4.99826 13.0206 10.9871
1 10.8325 25.1296 27.7412
1 27.5934 11.0066 2.34129
1 30.5124 27.1437 31.2473
1 20.3993 7.7214 13.1609
1 14.0638 13.4301 40.6127
1 24.0557 43.244 15.7189
1 48.7183 44.7148 3.66297
1 11.5653 40.7521 35.1753
1 4.10083 36.6575 23.8574
1 21.9869 3.89407 2.01404
1 22.4804 10.3666 16.1286
1 5.06026 31.0555 49.0481
1 17.4584 32.9901 13.1123
1 48.9986 24.4424 37.1797
1 4.02909 19.9327 10.9373
1 37.6756 49.2145 23.5994
1 18.5246 46.5694 2.89424
1 27.8127 8.76171 0.424181
1 41.0281 21.2126 18.7611
1 33.0725 37.6054 23.8025
1 8.20857 36.0509 21.2252
1 4.13238 25.2101 47.1555
1 31.4917 2.2212 18.889
1 44.3075 14.2018 18.2795
1 42.794 21.2682 49.1287
1 21.0204 33.4305 41.1879
1 11.2868 7.97955 24.5833
1 35.4071 5.19222 36.7655
1 38.8445 32.4211 13.5433
1 14.848 9.86432 32.7262
1 39.7128 18.9217 19.3662
1 46.6638 15.6643 45.6165
1 14.8315 5.39089 32.7564
1 34.5023 20.5996 35.7705
1 24.4971 44.0236 29.4026
1 38.6127 27.6873 22.9057
1 38.1279 34.2847 46.0156
1 0.359171 27.2372 46.6397
1 12.5327 8.73689 48.6688
1 35.529 34.3769 11.881
1 22.4702 40.4476 34.1019
1 40.8551 18.3465 2.98558
1 5.37262 9.95908 10.3351
1 49.2517 29.5556 17.4062
1 26.1012 29.7918 11.331
1 6.09848 48.0523 33.2659
1 16.296 1.1569 13.6483
1 35.2914 24.3731 39.7899
1 13.6723 30.3774 38.5472
1 5.5693 10.0362 7.54615
1 38.6815 34.1977 8.77355
1 15.939 18.9807 18.1717
1 17.3097 3.48851 47.4444
1 36.6566 32.9678 31.919
1 11.0221 42.6038 44.5824
1 39.5293 24.8695 4.08498
1 30.2814 18.9225 45.3476
1 24.8414 21.5405 43.0953
1 27.7864 32.6196 41.5498
1 13.063 36.8393 16.5216
1 11.793 4.92057 36.9383
1 0.0962522 44.7738 43.9624
1 19.584 14.4449 13.0466
1 9.18389 14.3197 34.2575
1 17.2295 25.4525 30.6926
1 1.09539 12.704 15.0777
1 1.03186 4.2237 23.4485
1 45.9338 29.8775 44.6717
1 41.5738 20.2362 5.06745
1 19.7874 6.49458 15.539
1 3.70086 37.5292 16.5539
1 28.5028 35.4282 2.2402
1 35.1305 22.4931 46.3417
1 7.38339 25.6736 4.99706
1 29.1231 20.3115 39.7833
1 12.1349 12.3272 35.8681
1 11.6318 14.533 25.2121
1 0.255765 11.168 20.8853
1 45.8071 40.3592 41.724
1 10.9342 42.9793 16.4171
1 21.921 44.7916 10.5744
1 26.5118 9.87317 10.7098
1 10.2557 45.2132 22.1084
1 25.3127 41.3644 22.1867
1 24.8252 35.6016 20.7327
1 34.1632 20.366 31.4945
1 0.935861 13.5012 47.5465
1 5.24571 7.40897 18.0206
1 28.8704 42.8233 27.1044
1 7.66559 37.3221 24.5796
1 29.8719 17.9259 3.81426
1 19.4587 37.2409 6.79318
1 46.1428 41.4944 45.5263
1 8.79258 37.5278 27.0787
1 24.656 11.0398 23.4368
1 21.4154 47.1725 41.8792
1 17.4864 26.7209 46.7332
1 8.64925 39.4044 7.06871
1 32.3984 42.3906 43.3982
1 3.002 31.3277 19.3013
1 2.04184 30.8177 32.6021
1 35.3381 36.3666 10.358
1 0.580585 2.68843 27.942
1 36.9539 12.9906 4.2242
1 20.2712 8.25587 49.088
1 41.2612 21.3071 41.1775
1 7.35608 1.32123 0.750757
1 35.7242 30.7559 5.27775
1 36.7018 27.5178 5.6338
1 13.5227 34.9178 6.68658
1 21.5505 4.58151 4.85764
1 44.5278 37.3535 2.9964
1 32.3456 33.2208 27.7683
1 21.7035 28.7858 10.446
1 30.2957 11.5545 47.1452
1 7.93172 13.8804 6.91091
1 18.1397 2.6179 32.7453
1 40.3504 23.6315 35.0276
1 34.8099 10.8251 16.2896
1 42.7456 13.1267 36.6242
1 0.421783 19.2867 28.0346
1 24.9703 20.3996 40.8343
1 25.3783 5.81056 4.31
1 10.2464 6.24235 27.5192
1 12.9846 2.51031 37.2067
1 16.9344 40.9505 10.5748
1 35.2191 45.1248 27.665
1 42.817 45.1967 20.619
1 6.52177 17.9861 13.8606
1 1.21183 41.9684 12.2289
1 40.6695 42.4428 40.2843
1 3.96823 11.6969 38.1158
1 39.0093 25.1328 28.335
1 25.1163 31.58 13.3545
1 45.1564 17.1389 35.1951
1 18.7187 4.61973 18.2268
1 5.47317 7.49964 20.5013
1 22.1678 8.08912 9.20622
1 20.1965 15.244 24.5833
1 32.0231 49.0402 17.9577
1 38.3285 36.6494 22.558
1 9.3279 15.1716 21.1171
1 7.80789 8.65202 27.2542
1 13.0073 19.8424 2.64665
1 38.1441 36.3685 44.2022
1 38.7152 24.8968 11.3727
1 27.0038 21.281 29.5784
1 12.5841 21.4373 20.5156
1 11.0909 3.90177 40.6644
1 42.7919 17.9917 29.9709
1 29.2833 29.1329 45.6776
1 16.4876 20.113 14.2876
1 39.0991 45.8205 18.0256
1 14.8104 44.1554 22.7394
1 36.1581 21.55 20.5093
1 6.28354 22.6248 3.48175
1 30.4811 16.4925 41.5437
1 19.879 29.7947 33.8569
1 0.263415 0.489978 13.811
1 4.85726 41.1738 35.5487
1 20.6464 5.29754 47.0722
1 41.262 12.6677 9.1904
1 26.4946 40.6404 29.5833
1 29.6962 31.2699 19.7385
1 18.6876 35.0232 2.51971
1 34.4959 47.9566 17.0043
1 28.9574 45.8008 40.9377
1 8.55081 18.2862 30.7144
1 47.64 45.7623 20.7183
1 9.37198 29.3979 47.5761
1 11.044 33.075 48.2632
1 47.3631 42.7788 14.5095
1 43.0317 33.6175 18.3226
1 17.9599 30.2242 12.3081
1 45.4099 30.6601 36.2907
1 28.784 0.87958 42.1129
1 48.2167 31.0816 45.8942
1 17.1399 22.6501 34.2374
1 45.274 36.7161 18.0805
1 8.34169 39.504 18.1568
1 2.71139 7.57873 13.9545
1 25.515 34.855 8.3412
1 20.95 31.1452 22.6358
1 38.02 30.0162 29.5444
1 32.375 34.691 45.3019
1 16.0016 2.65136 37.1562
1 3.50947 16.2228 17.6912
1 38.882 48.3667 20.7416
1 34.7446 13.7579 46.1645
1 22.4435 35.6617 49.467
1 4.8786 38.1485 9.06523
1 23.5953 13.1588 31.963
1 45.9294 2.98278 7.60078
1 29.7421 32.0147 5.82463
1 8.80652 40.2465 28.1742
1 20.3702 3.04735 30.6957
1 42.899 3.45603 30.8985
1 7.49424 11.655 26.9189
1 20.4218 11.5792 19.2607
1 31.3237 47.6731 4.05515
1 21.7624 43.9809 44.4844
1 45.0843 34.0271 16.3542
1 48.1545 20.6104 3.13124
1 12.7232 29.92 32.462
1 23.9295 41.3229 41.1751
1 43.3635 45.636 27.8026
1 29.0308 14.2425 17.3338
1 19.3127 31.3875 42.214
1 33.0918 29.2799 7.26378
1 47.4999 30.6264 14.1212
1 18.3376 0.326597 9.88808
1 15.2233 33.0312 32.9457
1 41.1594 17.0005 34.9316
1 12.4886 6.56935 19.8217
1 48.4984 16.0257 39.4674
1 25.8911 24.4787 15.0615
1 29.9977 39.9497 39.9734
1 19.0798 34.9554 34.0864
1 10.1419 12.661 15.5312
1 9.05057 41.6052 30.6394
1 15.4097 28.0781 30.8675
1 36.9974 39.6812 35.3964
1 2.31807 48.8601 31.3652
1 16.6872 32.3134 41.3926
1 0.405499 9.76586 33.0811
1 0.295443 37.9711 8.54769
1 16.9262 5.78576 29.3826
1 40.87 2.2353 28.9193
1 45.2802 48.7228 5.21732
1 5.17736 39.3501 24.3518
1 47.1981 13.7506 32.8102
1 21.2463 5.72534 23.9176
1 26.2912 27.4594 34.7917
1 43.9726 41.0497 27.9309
1 29.364 22.0059 28.6194
1 13.356 41.2526 15.9718
1 44.4924 24.7002 10.5419
1 27.5934 43.4711 45.6289
1 13.2217 38.6193 11.8784
1 46.2657 27.3962 23.6983
1 24.9306 24.6857 45.5246
1 24.0662 14.275 12.555
1 29.9932 31.9595 23.1143
1 25.706 27.4552 14.8239
1 0.817535 12.5135 36.4457
1 45.0647 43.8176 4.88405
1 42.2675 5.35804 9.02679
1 28.4636 9.05149 45.1896
1 13.784 10.8844 4.42895
1 30.8853 21.0908 47.3931
1 6.99654 32.3531 43.6799
1 11.5423 37.2517 23.7623
1 18.7124 43.3318 31.4803
1 23.7449 31.4334 7.50198
1 39.5581 8.65695 47.2352
1 21.2984 45.6588 39.4485
1 4.57548 17.9498 3.11116
1 23.2016 6.56092 2.35533