4096
 Atoms. Timestep: 5160
1 2.74454 27.0515 21.3858
1 26.7828 21.7686 16.5382
1 40.4257 2.88132 27.7986
1 26.0756 40.7341 4.99833
1 45.1237 13.5683 23.1427
1 14.67 1.26375 35.6461
1 27.8512 35.3512 3.83711
1 41.2727 44.0208 12.2421
1 1.57459 48.0999 41.143
1 46.2446 3.71857 24.7104
1 25.5958 12.5764 4.66396
1 41.0709 44.2373 31.6024
1 17.994 48.1716 6.57488
1 4.27046 16.2248 23.9685
1 30.9386 29.044 3.83139
1 23.5345 4.94475 10.6365
1 44.354 5.09839 40.2549
1 6.66348 23.0536 7.32413
1 11.2646 10.1628 15.7413
1 8.70499 20.2606 5.09111
1 41.4661 15.7909 8.28838
1 7.09178 29.3146 15.8581
1 3.29708 34.9622 39.7654
1 40.566 17.5942 23.1295
1 9.61355 14.0749 36.88
1 0.914316 34.9076 10.6273
1 1.44751 8.25994 14.866
1 10.173 10.2034 18.3552
1 8.56281 11.3402 27.6415
1 3.98233 46.5255 -0.145037
1 30.2909 40.2411 46.1725
1 4.6022 8.2995 12.3387
1 33.7897 2.6198 4.9766
1 2.25972 25.6451 17.0179
1 25.5612 49.1042 44.4874
1 11.522 39.7828 19.5873
1 12.6581 12.8662 8.16044
1 22.7883 31.1664 39.1652
1 4.99386 31.6632 12.4664
1 32.3412 9.86838 19.948
1 32.4614 34.1402 29.2386
1 33.6521 35.2508 20.585
1 4.37985 39.517 11.9582
1 34.0649 40.1197 41.9624
1 49.0688 0.0259218 15.1329
1 14.7027 27.5682 40.3719
1 38.9048 27.553 23.2483
1 2.0517 30.2324 16.5301
1 4.74489 48.1029 23.7851
1 18.3035 40.6326 6.64576
1 11.4677 3.16837 29.7974
1 28.2066 7.69158 47.0064
1 10.3128 20.6883 35.7364
1 5.24019 25.4688 39.24
1 36.6356 22.2908 5.87499
1 29.7103 30.6413 34.403
1 28.9643 13.6875 19.2355
1 47.3882 0.383714 36.2237
1 37.4651 0.366581 44.6931
1 19.9987 21.2899 12.1745
1 29.6515 31.9694 31.0778
1 8.55525 42.1529 35.9049
1 42.5596 0.704548 48.1213
1 12.1536 19.7282 44.7987
1 43.5634 6.20011 5.76492
1 1.84998 3.19231 16.1536
1 42.7838 10.666 49.154
1 44.5957 4.82137 16.9642
1 20.9204 15.4927 44.491
1 44.5111 23.5046 9.47503
1 28.3051 1.71255 30.738
1 30.0726 21.0907 24.9643
1 12.1633 7.64211 28.9299
1 32.6001 33.5571 4.11827
1 31.75 48.2545 21.1706
1 9.42857 47.9622 32.5098
1 46.6367 28.6222 3.13527
1 20.6012 36.507 25.0569
1 29.3517 17.6657 21.6276
1 3.55496 23.7804 5.27212
1 38.07 8.73555 39.9886
1 31.2866 10.6281 27.2164
1 16.8733 5.58541 8.65415
1 1.74906 49.0311 14.383
1 24.0959 15.4056 18.0944
1 23.6837 42.642 35.8634
1 23.4012 40.2043 12.2786
1 11.6504 41.2175 49.1188
1 3.48746 15.5064 11.8904
1 40.2358 37.7907 34.7406
1 25.5318 1.16318 31.1133
1 3.51451 33.3806 13.7736
1 33.3968 4.55788 42.8858
1 35.2931 2.76704 18.5665
1 13.7882 6.91085 25.1732
1 43.9919 13.7538 11.1399
1 17.6226 44.484 40.4492
1 18.7343 42.5893 47.1542
1 26.3716 47.5748 48.342
1 7.19772 35.8377 41.4685
1 25.8617 13.5913 30.9841
1 21.1769 15.6808 2.87643
1 21.2551 24.2362 8.99996
1 19.2397 30.4722 15.6683
1 6.03143 1.94031 16.905
1 40.8575 36.4945 22.1048
1 45.6595 16.7075 9.62817
1 14.4677 5.83544 5.7432
1 31.5359 13.028 39.0358
1 7.39536 45.4473 43.5597
1 34.4466 41.4011 21.7461
1 13.5159 44.8349 22.4706
1 29.4783 32.3799 27.9579
1 1.57588 34.8973 43.4935
1 34.2747 22.4047 6.9703
1 27.7421 21.7972 14.0174
1 23.5249 21.0666 40.4637
1 39.548 4.31351 32.0558
1 40.42 26.4463 25.2658
1 18.1914 48.9494 12.084
1 15.4103 25.3942 2.63262
1 35.4651 14.3741 14.6897
1 43.4842 11.7762 35.6653
1 17.4008 31.2296 47.4366
1 15.368 3.68044 34.5772
1 44.3769 19.8845 20.496
1 34.2349 34.6929 37.111
1 8.74961 16.7823 10.7962
1 24.7316 4.992 34.5172
1 37.9522 5.48089 49.4274
1 19.6593 35.4963 19.9484
1 38.3555 21.903 27.4862
1 20.8378 49.4583 0.582097
1 23.2005 36.4426 13.947
1 1.25199 8.05072 33.3915
1 44.3884 40.0808 13.1594
1 5.98217 15.2246 8.2379
1 21.7382 43.7207 21.5543
1 39.2487 12.4364 33.9939
1 0.560365 37.1168 16.6463
1 22.5628 11.0475 42.7616
1 30.6386 29.8073 23.0965
1 23.666 8.06272 0.0777654
1 34.362 6.63234 12.0335
1 -0.000475566 31.4093 24.1433
1 6.26391 47.2182 17.5671
1 5.18786 13.3886 6.10307
1 43.7824 44.5659 41.4512
1 15.9174 20.9619 47.3224
1 47.008 25.9294 6.82781
1 12.836 15.1597 6.74445
1 38.0132 5.27956 20.1619
1 10.8563 21.7547 22.6987
1 0.211139 41.6085 26.3785
1 9.89395 25.5935 14.2622
1 46.5182 48.4018 11.8344
1 37.367 8.15686 31.654
1 16.1284 2.35937 23.5561
1 36.0588 48.0469 1.57337
1 40.9484 20.7676 2.28147
1 30.7663 1.98357 43.8345
1 16.3459 0.508353 1.97322
1 0.817836 12.2668 34.9135
1 24.3709 8.66265 7.80661
1 32.6677 10.5831 8.36349
1 49.3074 44.8777 10.7005
1 28.8064 12.6644 13.3429
1 39.0697 37.7857 23.7855
1 31.4962 45.7282 7.46232
1 17.3837 10.9868 49.0864
1 32.983 5.82638 17.811
1 30.9255 32.9313 46.2238
1 7.22683 1.81526 23.8495
1 27.4926 23.4436 44.2144
1 33.1443 37.2163 11.9859
1 19.5522 39.3901 0.49446
1 4.46379 5.39706 2.39904
1 24.4464 47.8734 31.2781
1 20.0329 33.7326 30.7315
1 9.61676 34.3782 38.2569
1 47.3575 18.5354 23.2623
1 10.8581 9.09428 4.69558
1 33.1948 35.9506 26.9482
1 11.5534 23.8121 1.03858
1 12.7074 2.43375 37.467
1 31.3075 18.4811 30.6361
1 23.9338 8.98878 35.2013
1 15.81 33.0979 20.3912
1 31.4564 45.6998 38.5488
1 14.1531 3.62368 7.22862
1 49.2166 34.806 36.8385
1 20.2098 34.1692 37.8434
1 34.0619 30.3161 45.6999
1 5.90744 48.1547 1.65812
1 2.0713 8.81298 18.6898
1 29.5264 2.33315 39.4462
1 46.5218 1.2868 11.6316
1 30.8686 24.4134 17.6613
1 30.2054 24.188 26.6628
1 2.51812 21.5511 24.9428
1 15.3353 19.5032 26.1712
1 16.2256 8.01089 8.84435
1 8.03872 13.811 15.3013
1 40.9242 10.8141 21.1851
1 41.1754 11.4074 45.2912
1 21.8916 40.2734 9.7502
1 21.6281 10.198 3.77506
1 41.4185 38.9042 11.632
1 23.521 0.223653 9.22592
1 28.3826 22.397 20.3925
1 41.3312 41.019 25.0999
1 43.2188 0.0410444 20.1715
1 34.1533 19.5013 39.6891
1 0.463011 40.6254 1.13508
1 21.4475 38.6361 13.9974
1 3.34016 1.92695 21.3391
1 12.3935 28.7885 30.3268
1 26.7597 37.305 21.5925
1 4.03149 6.67661 4.89071
1 46.6074 6.95069 2.48794
1 23.9904 43.7446 18.9602
1 13.7378 40.2733 1.25936
1 34.6154 10.3039 49.415
1 16.5947 9.16706 47.1001
1 26.9767 38.5062 17.1867
1 17.6289 17.5255 20.5518
1 26.709 24.5508 29.8833
1 46.9853 12.3951 21.4474
1 17.2176 12.6873 3.7295
1 23.8577 41.9489 48.4681
1 20.2617 30.7053 5.96114
1 22.5094 36.1811 7.26494
1 21.8174 28.1773 20.2799
1 22.5966 5.0844 21.9547
1 28.7289 11.3075 44.0941
1 35.6299 40.858 16.592
1 11.9623 20.5043 31.6655
1 0.173799 7.40947 6.66333
1 0.598706 22.7641 49.2059
1 46.6174 28.7135 46.979
1 32.4505 14.3877 10.0261
1 21.7087 39.7573 39.1176
1 30.3457 24.6322 36.7815
1 48.1132 10.8064 8.7766
1 14.7648 42.2168 46.043
1 5.52729 19.6362 22.2905
1 25.4411 36.6179 23.8062
1 19.0075 39.7385 43.176
1 35.5002 10.0486 7.97205
1 22.9976 7.47182 26.7966
1 37.8928 42.7443 0.431971
1 19.3876 19.4873 47.0621
1 36.894 42.7684 29.4692
1 26.1533 8.39058 40.9536
1 6.9608 15.598 23.2935
1 9.96662 37.1772 47.2964
1 40.5185 14.8615 23.1342
1 47.9585 5.47775 9.73976
1 39.025 22.7507 47.5093
1 47.9578 46.2175 42.4973
1 13.6936 14.4867 21.0229
1 10.1939 15.2568 2.64482
1 38.7932 47.4942 34.4899
1 47.8049 13.7656 46.4705
1 43.7022 45.4159 13.2379
1 4.57172 47.6934 19.5113
1 17.3724 16.4539 16.1264
1 19.2414 40.6605 40.3791
1 15.8976 42.9182 13.9301
1 43.1523 28.0764 34.8943
1 12.5962 39.0001 22.0238
1 33.1736 23.2143 31.0769
1 48.1294 46.554 2.22241
1 9.58907 14.4466 9.49596
1 16.9481 27.2943 3.28655
1 47.0051 28.4539 5.77178
1 48.9583 37.2057 34.9477
1 31.4508 20.9361 36.3307
1 38.7704 48.9079 42.4015
1 -0.0853028 48.0285 43.171
1 23.8704 48.7115 47.7875
1 19.2923 20.3811 14.8168
1 47.2342 3.65885 45.664
1 12.6316 18.989 29.4608
1 19.6065 4.28444 8.90075
1 13.3508 24.1014 6.74601
1 9.58972 10.3627 1.06491
1 48.5361 33.4831 27.2037
1 0.924111 25.6327 23.3738
1 27.5311 21.9217 24.7207
1 42.471 20.2836 37.6552
1 44.113 20.9512 40.035
1 42.7186 16.8654 34.685
1 6.55206 41.1878 42.7968
1 32.8968 11.5339 47.7254
1 33.8387 28.2056 4.8312
1 35.8227 16.1278 11.8669
1 32.9217 24.6181 35.4573
1 42.0785 22.4978 26.5203
1 29.9123 3.99592 37.3553
1 2.69811 35.2689 8.95972
1 10.9155 34.6095 9.10035
1 33.7673 43.6878 20.8837
1 25.6223 5.81252 26.5121
1 1.63013 9.24456 40.5643
1 41.0642 21.1156 11.9179
1 11.5728 1.12995 19.2274
1 48.3113 10.5768 17.3052
1 7.23068 8.10091 11.6609
1 19.928 28.1916 44.4161
1 8.2077 31.0037 30.8142
1 39.4027 18.0502 48.3753
1 2.28253 42.5683 35.71
1 39.6096 42.5877 8.86652
1 40.7692 33.7187 18.1498
1 41.2957 33.8051 43.1495
1 34.1103 5.88604 48.2854
1 2.29165 11.8724 7.1275
1 33.1992 12.6081 40.9694
1 16.7401 5.99214 21.603
1 0.742612 15.4193 10.455
1 28.8369 25.3623 3.68435
1 37.6923 25.5275 41.5389
1 8.62255 41.9243 30.3864
1 7.87168 48.9795 30.0411
1 48.9678 28.4951 38.6945
1 3.42407 36.6665 35.3385
1 48.5133 14.0926 43.8151
1 41.755 18.4648 15.5103
1 48.2359 4.08731 3.27546
1 32.7684 39.3981 18.1908
1 19.0936 12.1378 10.1827
1 18.2485 45.0911 20.5256
1 36.6908 47.3177 32.4644
1 44.0674 19.1584 9.97635
1 27.6988 43.2396 8.11187
1 43.5909 37.455 31.5047
1 46.2218 3.44343 41.6048
1 2.96758 40.1621 32.1942
1 46.9197 3.18564 36.6224
1 9.48216 2.25715 32.7815
1 40.0149 21.1787 41.4959
1 1.03233 23.1683 42.5357
1 41.9013 11.2782 38.8397
1 35.016 15.3047 43.7732
1 11.2957 15.6573 13.2239
1 2.17252 8.89419 25.9176
1 48.1281 11.5232 37.5965
1 33.3237 27.3159 39.5832
1 26.6137 12.5366 7.60793
1 23.009 7.66578 10.1919
1 40.4178 16.4569 5.53664
1 49.0391 31.7374 14.4175
1 25.806 23.9523 46.4779
1 2.85823 30.8335 38.8265
1 39.8892 28.9505 33.5765
1 0.778898 14.9301 25.7046
1 11.4876 3.63659 7.43216
1 48.2232 9.86158 23.5737
1 25.88 5.69216 15.4388
1 16.7679 20.7333 18.1468
1 0.500967 37.5526 29.3517
1 23.4703 1.55864 49.4005
1 15.9671 24.4102 45.5603
1 49.1646 35.4245 21.3372
1 17.2162 28.6687 40.6838
1 14.3832 5.30261 11.9348
1 33.7039 15.7244 25.0669
1 13.3351 14.1681 18.0788
1 3.93777 13.8507 29.6548
1 45.5817 0.0766462 18.1891
1 37.4577 13.4058 47.0824
1 13.4686 3.08581 13.5258
1 26.6874 12.4812 48.1743
1 45.2528 37.702 39.8453
1 39.6589 37.5383 18.6397
1 5.07065 31.428 9.2721
1 32.351 45.0258 -0.0292999
1 17.0577 13.4771 9.27818
1 8.08352 15.7299 38.3425
1 10.9878 10.5494 28.0479
1 2.48414 44.3285 44.5906
1 49.0756 39.5136 31.6247
1 2.89234 44.4732 12.2441
1 36.9111 45.8678 49.5077
1 6.92246 46.6253 37.9019
1 16.726 26.7935 8.60824
1 31.6395 13.9067 28.5714
1 11.813 12.7337 32.4759
1 26.2972 41.8785 9.76138
1 10.0777 19.85 46.4269
1 10.8417 14.6035 17.3231
1 5.84513 30.2944 27.5211
1 39.8956 30.0764 22.8388
1 2.49852 0.642073 40.1361
1 21.0203 2.65655 33.9161
1 16.6184 33.4098 34.663
1 23.2123 25.3294 46.3671
1 47.5969 6.96244 49.4085
1 38.6628 13.1181 41.1306
1 44.2917 48.2536 47.8667
1 9.26988 15.9347 29.0194
1 23.6639 3.25861 13.4017
1 14.7962 27.0784 49.4589
1 4.7466 45.3584 8.75134
1 16.2362 25.2458 42.7
1 34.2324 14.2018 27.1235
1 47.6276 43.8838 47.4726
1 16.3821 21.5852 20.6053
1 23.5022 20.12 32.7508
1 20.7215 33.0475 3.21502
1 5.82051 47.8493 42.5514
1 22.2088 39.1391 6.89476
1 10.002 45.0942 38.7197
1 37.088 49.4186 29.8708
1 16.4057 4.72063 38.0801
1 35.6905 37.0458 20.8059
1 13.3061 24.3204 46.812
1 2.69452 36.9175 3.98709
1 1.48284 13.5761 1.7744
1 15.9773 49.412 24.9438
1 29.121 3.24986 35.0058
1 19.1651 15.8067 26.0113
1 5.23454 4.98562 32.3973
1 28.3013 24.7257 24.2676
1 29.5868 48.6642 0.833047
1 7.93652 11.6508 44.7145
1 9.88851 34.9268 30.1084
1 7.54782 41.4378 25.2157
1 49.3825 19.5983 21.7662
1 22.235 6.44858 31.3445
1 35.6065 0.455949 26.6254
1 26.1967 40.9711 32.9807
1 37.1881 36.8758 10.3715
1 36.449 18.9568 11.1851
1 19.3902 0.489204 45.986
1 22.0781 20.247 30.4304
1 37.5918 41.8355 25.0231
1 31.4202 49.6859 27.6679
1 16.9538 21.8191 24.9204
1 3.43315 39.2017 25.2635
1 38.6846 13.354 7.994
1 43.3853 6.26391 0.300891
1 30.2204 9.48698 0.483494
1 48.4049 40.477 39.4186
1 33.7536 23.6862 27.2756
1 48.7566 27.5983 23.1484
1 2.51808 30.497 9.72607
1 25.3401 1.65258 3.68953
1 27.3229 32.4519 15.6385
1 0.036501 3.78428 21.1919
1 29.7177 33.8877 36.6733
1 10.2598 26.8644 30.4074
1 17.3351 12.6887 37.3845
1 12.0332 40.7322 28.7611
1 32.6959 11.2859 22.2145
1 21.8997 34.1422 14.9607
1 14.0273 8.94211 14.6895
1 7.16455 9.33767 8.01862
1 36.8063 31.0743 26.2317
1 39.4658 34.3523 41.43
1 47.1262 23.8666 37.3594
1 8.56214 14.038 6.73924
1 8.01531 5.49831 32.6395
1 22.6523 13.8006 14.7687
1 39.286 49.5031 32.1366
1 18.0923 13.2631 25.609
1 2.88678 48.9574 7.16578
1 24.3175 47.9415 2.53358
1 44.3074 35.2662 47.2181
1 36.9576 35.4398 28.3624
1 25.5905 35.5727 49.1312
1 6.3716 30.1794 2.12425
1 27.1422 17.4874 2.02192
1 19.0705 20.2423 21.7069
1 0.244679 10.785 2.76214
1 11.2977 23.3239 14.8885
1 44.8436 7.46652 38.9227
1 47.9354 45.6643 16.6657
1 4.47194 5.23237 35.291
1 37.9839 11.5726 2.28049
1 47.3237 18.2701 8.3732
1 31.5978 12.216 16.1099
1 11.0388 6.36171 36.9462
1 0.980586 4.42389 31.1812
1 26.6035 25.2429 37.5443
1 43.108 38.9192 25.3385
1 19.2976 12.0012 44.1449
1 34.0343 46.8265 25.4283
1 43.194 26.5334 32.374
1 6.83824 32.1897 24.4375
1 17.4451 15.412 38.1656
1 7.92322 32.1589 14.5582
1 24.5921 1.30907 46.3697
1 16.4373 35.6488 44.5905
1 16.0097 28.4185 24.6971
1 8.25109 1.44608 37.0573
1 2.54901 42.7523 40.2806
1 45.5748 12.7091 30.5885
1 35.5873 0.527153 48.0537
1 29.2339 46.7104 25.0836
1 5.57378 33.0504 15.9437
1 15.611 5.67162 1.38549
1 14.6785 43.9447 39.7629
1 28.5397 46.2803 20.5926
1 1.14939 28.9214 48.0576
1 1.39768 36.2236 1.5074
1 0.247108 48.7749 48.2684
1 9.97387 48.8139 45.0933
1 11.9376 33.198 30.4297
1 22.4585 46.5478 15.6525
1 22.6911 49.7847 29.1548
1 44.2208 13.2047 43.5048
1 7.75994 40.235 32.2028
1 42.3746 12.4735 28.4195
1 3.50602 5.6973 45.8232
1 17.8087 27.4451 42.8732
1 17.747 46.7752 35.2189
1 48.9422 6.7487 38.2354
1 7.09429 6.75806 43.1209
1 38.3545 19.6386 0.992726
1 20.9541 11.9424 20.3805
1 33.389 23.9788 18.3477
1 19.4053 22.01 45.8868
1 5.30004 2.6669 31.08
1 40.0422 45.5066 2.97544
1 24.0785 31.8581 9.21524
1 46.5387 15.3928 31.1011
1 47.1433 14.0386 41.0303
1 34.2144 20.3862 10.9777
1 41.8122 39.4158 31.8643
1 23.4205 34.0705 45.1202
1 31.0411 28.5059 35.821
1 13.7368 47.0896 41.6632
1 41.7555 23.0583 10.0692
1 34.8422 35.288 11.6361
1 32.6273 8.49763 40.9406
1 47.1482 41.4895 37.0472
1 30.8455 14.8814 17.2934
1 9.59266 2.14226 27.9181
1 40.054 31.9947 39.5611
1 1.10249 4.5495 45.1793
1 9.56403 41.7202 20.4747
1 30.3529 3.72132 49.6592
1 5.62581 7.27122 28.484
1 16.9177 26.8015 32.2622
1 38.8104 25.3891 4.66851
1 49.5925 11.5912 29.2073
1 49.0081 15.295 22.7684
1 12.065 44.9053 30.8403
1 42.2969 20.2881 32.6302
1 31.5407 1.66535 25.2944
1 2.65392 28.3752 43.3142
1 3.64427 28.4899 15.0188
1 10.8243 43.5987 22.4188
1 8.87259 0.0316166 19.3766
1 42.5174 49.5178 10.2378
1 7.69575 6.73929 7.71698
1 4.67362 26.6418 9.2344
1 6.18524 3.89624 43.2198
1 40.5523 0.614053 40.7743
1 48.0619 16.1248 47.8983
1 38.0735 25.9594 44.5372
1 30.5111 26.8604 24.0714
1 40.4573 30.2945 16.3534
1 48.2762 33.6562 1.21381
1 45.1742 31.2941 10.0159
1 28.2444 46.6987 41.5753
1 3.24337 0.741269 23.9948
1 27.6314 17.9647 35.4546
1 41.1455 5.97355 21.7764
1 25.7817 8.40363 47.8276
1 15.865 48.5409 29.3734
1 15.7132 25.1437 18.2525
1 47.843 1.107 28.9355
1 31.1927 38.5735 16.0291
1 12.5529 4.59216 34.5711
1 8.78044 30.8911 2.84458
1 49.3144 49.3398 4.48097
1 -0.0338434 49.357 37.0047
1 41.6957 40.8303 48.1023
1 42.3409 12.4549 2.46332
1 12.959 17.6003 1.77681
1 46.6352 33.9687 29.0325
1 10.5475 21.3507 18.6333
1 22.4632 44.5144 46.9969
1 5.60932 39.5003 41.2156
1 19.805 44.3827 34.8204
1 27.1709 17.3376 16.0921
1 14.7292 10.1917 33.3861
1 10.7361 19.4035 16.7009
1 1.36462 4.84478 1.98704
1 20.3587 22.6244 4.96209
1 32.954 36.7888 43.4871
1 34.342 26.0591 16.3352
1 18.0214 48.4355 20.775
1 46.3983 9.56917 21.8432
1 48.549 48.2427 25.5213
1 14.0501 32.305 27.0986
1 40.5689 10.8964 17.9386
1 38.1473 20.7714 17.7866
1 25.9661 19.7877 26.7601
1 17.8623 24.1226 9.36209
1 12.5468 0.149506 44.3736
1 10.4139 41.8627 5.14458
1 42.2923 48.9383 15.5398
1 15.2915 29.9464 22.4483
1 32.8689 4.57912 24.6103
1 11.6028 3.57599 40.1793
1 41.5757 32.766 36.0814
1 13.4644 20.6115 41.3004
1 26.9547 30.4332 35.3033
1 1.57998 10.9724 11.221
1 42.0001 4.83364 46.6002
1 11.1311 33.0504 0.70643
1 14.5613 36.8903 11.2766
1 30.8857 9.77098 3.26919
1 48.3968 11.3442 42.4213
1 4.40888 40.0282 27.8749
1 19.6222 30.9535 30.4092
1 7.04063 48.2612 47.8404
1 28.4751 12.34 2.37669
1 16.8292 44.0642 43.1355
1 34.7668 9.04473 30.2433
1 5.40258 36.8177 30.6865
1 1.76541 4.9995 25.2589
1 22.7685 24.0514 4.26033
1 2.66389 15.2941 47.3938
1 5.37322 23.2267 2.28909
1 29.0494 2.42041 6.85687
1 49.4351 44.5575 35.4311
1 22.105 8.80851 24.7114
1 15.1119 16.1956 0.37393
1 12.2007 6.91245 11.7452
1 45.9261 3.3263 1.78185
1 45.1327 46.2824 43.1595
1 25.6682 20.1893 7.66792
1 2.90442 42.2099 27.3657
1 0.986239 44.9787 19.93
1 8.89819 27.3749 44.7154
1 3.46755 42.452 48.3567
1 6.28589 20.0109 17.7581
1 43.1908 24.1341 39.4678
1 10.7273 49.1423 24.0784
1 43.9461 2.13831 10.9327
1 42.9517 9.61698 2.82724
1 26.1714 27.7299 39.8559
1 5.18169 7.20854 25.2981
1 49.3803 22.7439 3.32499
1 19.6447 36.4459 0.557171
1 40.3587 23.6432 7.6938
1 9.57033 3.88115 46.7818
1 9.80412 17.0938 20.5497
1 19.3605 6.86403 2.03164
1 37.0341 27.8596 37.5834
1 38.7874 14.8166 25.4089
1 6.92242 37.4776 37.6114
1 39.7777 13.3722 27.6773
1 3.32387 10.6113 35.0923
1 21.7403 1.63391 23.0254
1 39.0196 47.0243 30.2605
1 12.7366 15.1278 25.6524
1 3.3998 14.3282 33.8999
1 47.0683 11.4605 49.2127
1 9.25483 26.9629 25.8965
1 27.368 37.7043 35.7255
1 28.0433 40.4537 24.0436
1 17.0781 42.3882 9.38207
1 30.8564 -0.0290391 34.0599
1 -0.0821408 43.1266 39.9171
1 32.0328 3.68861 28.9533
1 24.2223 36.4877 44.1272
1 5.58705 11.9056 1.82401
1 14.1736 9.49768 41.0636
1 9.29152 46.7471 48.5306
1 34.8361 35.6865 30.2353
1 11.8308 12.9634 42.6589
1 24.4004 42.3034 26.8137
1 28.9403 35.5734 26.4409
1 12.5304 41.2312 24.0058
1 22.2801 5.38478 7.2078
1 16.3644 13.9632 48.0989
1 48.3277 42.3941 17.5993
1 41.3282 33.1798 15.3995
1 7.81839 23.056 24.3529
1 45.9463 35.6986 3.41793
1 3.89599 19.6813 37.6162
1 4.1158 7.67439 14.8099
1 31.0989 39.6335 36.7837
1 25.8841 42.7855 14.4828
1 26.5647 31.6605 32.3238
1 40.1144 40.8951 18.7236
1 19.4199 34.7724 48.0811
1 25.3696 8.49308 43.6914
1 26.9427 28.8151 7.07199
1 49.8184 9.51428 35.8586
1 4.96909 43.8266 0.811122
1 6.21816 16.2144 4.45748
1 8.82234 36.2192 16.3303
1 2.65722 20.3679 9.85667
1 13.6661 45.3622 14.939
1 45.7026 43.1444 19.4445
1 43.5126 4.60751 2.88264
1 44.1234 30.1238 19.1821
1 15.3446 26.9716 37.7866
1 23.7027 17.4609 0.366279
1 28.6595 4.75578 13.0005
1 20.807 20.2173 3.95054
1 14.0769 42.1946 7.33361
1 5.1398 41.211 14.414
1 23.8745 24.7733 8.56379
1 43.5867 27.8835 11.4873
1 37.2236 27.2701 33.1437
1 21.0677 42.3375 48.5515
1 18.1217 16.0609 47.1257
1 49.2907 6.59594 17.8358
1 35.1564 4.56694 32.7933
1 20.6883 5.37014 14.3902
1 44.4131 12.6558 18.2271
1 39.1087 34.2236 12.0703
1 21.6079 21.5128 34.517
1 44.9795 26.9338 2.13667
1 38.0656 8.05916 20.4191
1 31.5221 23.0734 0.733209
1 1.31283 17.2553 26.7597
1 1.19975 44.6568 14.4761
1 5.00037 27.5685 44.6438
1 5.06206 29.6911 7.0919
1 19.1834 15.7811 8.71623
1 34.9157 12.7319 20.8332
1 9.87677 24.1236 32.8002
1 19.2874 41.8015 34.8705
1 41.5788 35.4361 19.5788
1 40.1025 8.60609 22.5428
1 25.6706 33.9123 42.1312
1 6.58212 0.0739585 35.6608
1 32.1791 30.6881 43.4317
1 49.439 24.2519 36.4003
1 30.2864 44.0183 48.3994
1 17.4057 1.61687 29.9662
1 44.9306 7.21191 43.2462
1 30.976 36.0171 25.103
1 7.01883 23.2745 33.6123
1 37.8768 23.1948 14.4405
1 38.1943 31.3123 33.1306
1 42.2314 28.2387 4.52673
1 10.0518 26.0066 18.4672
1 32.0194 32.0557 40.1774
1 34.2831 14.7107 4.17472
1 14.9661 2.88773 27.317
1 35.9675 32.02 18.2126
1 47.163 11.6514 2.17323
1 4.29438 1.05358 13.3807
1 5.82661 23.4321 16.6224
1 25.3921 0.677902 33.9126
1 10.7101 5.29987 9.87014
1 26.7294 29.1969 42.1329
1 21.7082 2.76034 6.07127
1 39.2791 1.37963 50.0161
1 23.4966 15.8094 9.62851
1 30.8626 5.45465 14.7813
1 12.8191 21.979 12.9207
1 9.55854 3.50518 18.6203
1 32.6229 8.5149 23.7665
1 41.8417 12.2579 10.7473
1 16.5433 35.3834 9.54052
1 47.5854 19.7787 10.8817
1 21.3243 26.5806 1.29608
1 33.8853 19.9671 4.198
1 24.1485 12.6133 26.5199
1 19.8166 2.05761 36.4485
1 46.2789 32.259 18.9317
1 28.3681 40.4665 2.78621
1 9.4112 40.9743 46.2173
1 10.4551 34.8404 24.1014
1 39.4453 26.5232 6.93082
1 6.54062 34.4138 49.8383
1 0.0452219 2.7457 25.5548
1 10.5626 41.9489 16.3454
1 32.4949 28.4586 46.7024
1 42.9807 1.27964 5.13704
1 7.07386 37.4783 2.11634
1 11.8418 27.8246 3.78387
1 25.6679 21.7769 22.8806
1 33.8478 11.1873 12.4007
1 11.9555 48.6397 12.5384
1 43.3615 25.8483 3.5848
1 12.9321 19.6853 10.9713
1 42.7731 33.3623 49.4628
1 24.018 43.8149 31.5094
1 41.9591 18.3974 47.2415
1 29.3856 35.3456 0.732025
1 47.6412 21.9493 20.6404
1 16.2398 44.1297 7.5281
1 29.8446 35.4689 18.8167
1 36.1684 32.7877 42.3533
1 46.9159 19.7314 31.6117
1 6.30492 43.8474 41.7017
1 21.0797 21.3741 16.5835
1 2.20935 46.663 16.0465
1 14.3515 14.193 35.8578
1 38.3262 10.5459 13.2374
1 36.35 14.596 7.85896
1 15.1218 4.24513 9.82225
1 6.50694 5.88882 5.5492
1 46.9571 16.47 43.3974
1 6.72008 7.58712 35.6395
1 0.269449 7.23489 0.660381
1 22.3434 39.134 21.7193
1 32.2803 17.6694 2.15335
1 18.9761 38.0047 5.7032
1 39.1237 29.9802 9.87675
1 36.9803 16.9993 44.8149
1 33.7351 23.1078 2.43153
1 21.5855 31.615 8.32253
1 44.475 30.7632 48.3405
1 44.9319 19.1632 46.9039
1 45.1467 30.6756 26.2097
1 24.9672 15.2692 4.09865
1 24.8667 31.4311 13.4478
1 9.22673 45.204 13.337
1 10.9535 34.544 36.1013
1 0.594504 34.1267 30.5275
1 24.7773 44.1643 9.65061
1 29.676 8.13383 34.9756
1 24.3168 17.5059 27.7349
1 10.5887 8.07477 0.621452
1 16.8415 37.5936 42.7292
1 0.743365 36.1236 39.3459
1 9.06834 47.6189 22.2419
1 36.8402 19.1141 42.9958
1 1.05114 9.85714 23.6507
1 1.85808 29.0108 19.4141
1 10.9962 48.346 47.5438
1 9.46726 33.4933 3.25645
1 27.0784 34.4449 24.8
1 10.0232 17.2173 46.9455
1 28.3361 33.7369 45.9716
1 5.56207 40.0719 5.29275
1 9.04707 18.1082 25.1158
1 4.49696 42.8555 7.82709
1 41.1347 32.5353 4.90322
1 44.2301 23.9859 18.0861
1 48.8152 43.6552 31.0793
1 49.3416 30.8414 27.3879
1 37.7646 41.0326 27.4747
1 36.722 13.8209 34.6507
1 32.327 34.4169 41.0865
1 9.2346 22.9943 4.0583
1 38.0521 44.8352 35.5021
1 41.2177 38.986 39.2759
1 8.25136 44.9191 7.21892
1 4.91629 46.2579 15.4786
1 28.3591 24.1393 1.07726
1 6.26808 3.56709 2.68854
1 16.5103 38.8722 19.0965
1 7.08259 48.3842 33.5543
1 3.42231 4.20627 42.5239
1 47.3316 6.08867 15.4097
1 49.5565 7.91279 3.23811
1 17.356 1.32317 47.6881
1 21.9397 25.2858 30.5312
1 27.8547 15.4557 44.6147
1 43.0224 45.946 46.1429
1 5.20594 13.0886 35.8071
1 6.90045 27.2468 24.4528
1 31.3321 37.4688 7.44272
1 43.8651 32.1913 45.794
1 20.1493 31.6663 38.6368
1 17.7284 48.1524 42.581
1 2.79483 24.9692 40.7018
1 6.95358 19.7019 7.64637
1 3.2018 24.9838 47.5539
1 43.902 25.2851 12.8734
1 34.8748 20.8267 15.5853
1 36.3474 10.1083 42.0679
1 3.25155 38.4544 29.9187
1 13.4073 29.149 19.386
1 11.6343 7.45393 16.1105
1 40.0029 25.2402 29.6355
1 45.0925 33.269 6.64537
1 11.782 48.637 17.2755
1 42.0399 18.8908 19.1176
1 42.483 9.06288 13.1401
1 21.7026 42.5591 16.1051
1 36.171 29.8137 0.150999
1 49.1303 25.3925 43.348
1 47.792 33.3494 7.76251
1 13.2749 27.08 12.1406
1 27.0918 31.6407 40.5889
1 49.0697 29.6892 18.5699
1 29.8693 17.7453 28.241
1 1.44549 14.4646 6.35483
1 2.71617 18.3601 8.01548
1 47.3404 36.6659 18.4899
1 43.6893 25.7406 47.6563
1 23.632 3.55799 44.1663
1 6.78645 29.0962 13.0617
1 15.4631 49.1065 9.64718
1 21.5176 35.9775 9.61704
1 2.57935 47.1162 33.2404
1 30.5348 35.7769 11.5775
1 4.79336 36.3885 41.3086
1 3.92803 5.20777 24.0213
1 43.4133 44.0269 21.2853
1 16.5197 38.4262 33.8282
1 24.6232 26.3049 30.7225
1 30.4889 25.8475 45.4
1 44.1817 1.80787 24.6685
1 13.4854 1.881 17.3256
1 0.729662 28.0159 29.7518
1 44.0458 25.3678 20.5103
1 4.73515 19.9555 24.9141
1 37.5735 41.2409 10.0285
1 1.57744 42.627 31.3105
1 31.6671 16.2136 32.0744
1 2.85757 33.3385 31.8852
1 48.0585 24.6399 39.9863
1 0.517171 16.9409 42.6855
1 24.7971 31.2691 46.72
1 47.6822 46.8994 40.0576
1 17.4375 47.0687 39.6248
1 13.7376 10.1557 48.4468
1 40.4742 7.61802 37.8926
1 24.5217 39.5147 42.1491
1 36.5798 11.8734 11.619
1 7.99572 32.9196 5.65453
1 48.434 39.2348 28.6655
1 2.86716 8.71027 10.3015
1 13.039 40.335 46.8626
1 11.9311 11.0415 11.7339
1 8.54702 28.1954 9.95914
1 41.3505 25.4502 16.4075
1 19.2421 10.3724 19.6826
1 12.7515 20.6558 37.1285
1 49.6093 20.763 41.2681
1 32.3731 0.13484 0.885136
1 7.1476 2.82894 45.7113
1 16.0927 36.0244 22.5501
1 28.7872 45.8959 14.9365
1 5.69101 24.9907 23.3766
1 14.6207 4.87105 31.4351
1 10.8119 13.6033 14.875
1 26.0614 47.2306 19.5107
1 19.7827 23.5947 11.4082
1 36.2735 23.8386 28.5008
1 46.9267 48.9489 47.1073
1 15.2176 41.4712 43.4073
1 26.7635 31.6443 49.132
1 4.7732 20.7106 35.1114
1 12.9597 38.7324 30.3006
1 10.0128 48.4202 3.98356
1 23.3447 24.4023 26.0609
1 45.6781 33.0719 43.7254
1 13.9073 0.409803 41.8048
1 30.7381 47.4195 45.819
1 26.1551 0.330098 20.0971
1 20.8858 39.7863 19.609
1 13.47 39.29 9.52327
1 13.8773 29.951 32.2507
1 16.088 41.3867 20.7064
1 1.26218 42.7448 10.3023
1 4.395 9.44637 1.90103
1 23.9026 27.747 47.4311
1 24.1377 39.4884 26.3763
1 11.602 23.9261 3.68969
1 3.5301 14.7304 18.6724
1 5.86992 8.46064 48.4244
1 49.5898 34.1052 5.86063
1 9.62776 21.0843 14.7179
1 11.1779 13.0051 24.6145
1 37.2685 39.4521 18.6278
1 6.98046 26.4351 33.8281
1 8.06899 21.4979 43.3775
1 13.4939 46.8606 17.3055
1 48.2217 45.5507 6.48584
1 31.3792 25.6878 1.33972
1 45.0826 25.3894 36.7669
1 26.3466 46.3279 24.6462
1 8.82536 8.29363 44.55
1 13.8047 35.1236 43.7575
1 19.6208 43.5602 5.37418
1 24.9237 4.14529 8.10087
1 33.2295 44.1661 24.9627
1 44.429 40.6044 3.23395
1 12.11 37.9681 32.5988
1 5.52406 0.713024 20.1702
1 10.89 25.4511 7.47655
1 36.2526 40.4922 40.6876
1 37.7289 11.9322 43.2234
1 31.4195 7.43528 30.1977
1 17.67 40.9131 32.3505
1 17.6854 47.0199 25.7892
1 12.0805 23.7608 17.7963
1 10.3448 36.3256 27.293
1 23.8095 15.0366 44.0004
1 1.23889 46.978 30.8159
1 41.1862 3.72019 10.7077
1 34.9061 41.3301 35.2011
1 34.752 17.4462 35.43
1 46.3548 36.0669 21.6153
1 18.134 17.5028 32.3184
1 31.8362 25.4204 28.2397
1 10.3648 41.4664 39.8272
1 36.1702 6.60463 3.60453
1 43.8537 26.5178 15.4948
1 39.8612 37.1713 26.4909
1 33.7473 35.1656 1.77285
1 37.3757 47.3838 20.0975
1 35.7729 4.83185 35.3532
1 24.2763 6.78307 39.1555
1 17.1241 22.5013 14.995
1 23.1871 23.8981 20.5751
1 13.236 25.1561 25.4161
1 45.9224 41.396 0.631956
1 17.4094 38.9498 26.9532
1 49.4473 23.2035 22.816
1 21.5717 32.4598 23.746
1 35.419 28.1516 19.7617
1 36.9448 47.0456 11.7655
1 20.782 20.3116 37.0529
1 8.46436 18.8059 43.7974
1 33.7668 37.7901 0.814836
1 31.9736 11.6784 10.4889
1 3.39873 37.3365 20.745
1 41.9262 37.6477 1.03277
1 31.7919 44.6294 22.5374
1 30.3425 14.0177 25.8098
1 41.2243 14.439 17.3854
1 9.31799 12.8266 18.5483
1 10.1252 38.9682 17.1027
1 27.0408 37.0295 43.6198
1 27.9809 8.17973 26.3257
1 48.6029 43.5106 42.2358
1 22.5222 34.4891 30.0326
1 36.2083 28.4359 45.2343
1 0.847439 47.414 10.5146
1 27.6523 25.3729 27.6379
1 24.2143 40.8108 45.8106
1 33.1076 6.88256 2.76507
1 48.7772 1.29055 2.49441
1 43.5956 35.202 8.99535
1 3.32817 33.8216 27.0486
1 9.25503 34.6283 48.8651
1 23.1819 46.0255 48.8169
1 18.3219 33.3228 5.53671
1 0.975538 30.7777 7.65813
1 8.23369 2.07115 1.81847
1 29.4411 22.4978 35.1829
1 4.0218 27.802 3.67623
1 14.2839 38.7215 4.91096
1 48.4755 28.96 11.6514
1 3.63264 19.2787 17.8617
1 47.8879 31.2118 16.6849
1 46.0922 42.9545 7.39504
1 31.4508 15.255 34.8095
1 32.848 3.49334 40.3131
1 33.9308 18.6488 15.2931
1 42.8852 30.6219 3.33972
1 7.13559 23.9874 40.5164
1 49.6081 20.2998 2.47443
1 45.3692 44.4258 45.1718
1 32.048 23.9098 24.4388
1 49.0013 23.6241 18.9298
1 16.6055 9.92642 4.0629
1 29.863 49.1335 36.5198
1 33.9317 21.6364 18.0169
1 46.5222 36.8357 35.0271
1 24.9671 4.05443 28.7663
1 39.5187 15.7736 44.3513
1 13.9019 8.76112 19.8001
1 8.50777 29.1651 41.6368
1 23.737 27.7115 0.41811
1 35.194 43.7594 10.2405
1 13.9012 47.5858 23.9136
1 10.0888 29.5944 22.4454
1 19.7565 14.6643 17.5105
1 7.60175 38.6891 4.35531
1 13.4342 35.9215 36.4209
1 8.92622 33.2852 46.3642
1 3.48735 31.4929 27.8872
1 24.1386 43.0375 24.0607
1 13.4989 18.9319 20.1893
1 7.01433 27.7904 7.74874
1 15.5087 17.4001 38.9541
1 39.8932 3.69883 22.7722
1 7.81798 10.2318 48.981
1 34.6289 2.97056 23.3623
1 19.504 34.2349 24.4883
1 8.03094 18.7199 36.768
1 37.0374 33.5554 39.4617
1 0.497118 20.9156 11.5901
1 31.2659 39.0257 1.6111
1 12.1202 42.1342 12.6655
1 1.57489 46.6877 44.8285
1 37.0062 35.3542 15.9054
1 20.9454 45.6499 3.95436
1 21.7743 9.88945 48.7671
1 4.02382 24.1988 8.31617
1 33.3708 37.5914 14.8345
1 47.4226 4.26598 48.4436
1 6.00499 43.4235 35.5283
1 38.2594 49.5262 47.6914
1 20.8207 1.82937 12.3377
1 1.51136 18.6191 48.3397
1 35.7479 37.5896 40.1199
1 23.7945 32.5903 16.0921
1 27.0998 45.0935 28.5515
1 42.8308 28.2366 22.6801
1 46.5432 26.0737 46.4328
1 47.0672 40.0689 3.83869
1 5.17798 21.7608 0.279229
1 35.2325 47.6552 28.0568
1 36.9167 42.3881 32.003
1 19.3282 26.5336 7.79734
1 8.74129 45.5984 25.8114
1 23.7762 27.5753 9.4417
1 14.9682 42.7825 33.4541
1 43.4474 4.8733 19.4769
1 37.4997 16.913 25.3229
1 5.18754 42.9744 24.0522
1 15.1673 2.21779 20.9186
1 16.0377 41.4334 26.6945
1 11.1362 28.9616 25.2982
1 2.53938 45.7284 37.0893
1 7.47767 32.7665 37.946
1 47.0394 40.2045 23.2781
1 18.0271 20.0563 33.7246
1 46.2031 5.02225 5.07926
1 43.7643 48.2956 12.3821
1 17.4023 29.8885 2.28156
1 2.80375 17.2869 19.6811
1 18.0364 18.3067 27.3226
1 49.6087 9.77052 5.87089
1 33.7659 1.99465 16.5069
1 -0.0579294 23.5439 33.8688
1 13.9656 36.6842 -0.0248093
1 43.2562 42.6785 47.113
1 17.4572 11.2731 34.4047
1 32.5892 28.691 11.4533
1 35.8783 27.3852 30.5469
1 46.7754 25.5752 43.8734
1 40.4655 47.643 4.40605
1 7.93294 2.15741 30.4307
1 7.9068 40.4884 15.0531
1 46.8626 33.0566 47.8944
1 22.6856 27.5756 42.98
1 38.0742 19.3381 8.67197
1 1.90298 0.643099 46.8198
1 9.4696 2.30493 25.2267
1 37.233 37.7037 37.4639
1 31.5835 23.3325 13.9435
1 9.23244 41.197 43.3608
1 20.7829 13.8508 6.44692
1 32.4636 16.5993 4.67595
1 6.10901 29.0448 33.3445
1 40.1374 45.2932 37.1559
1 14.2163 1.92599 45.787
1 24.9617 28.6606 13.8847
1 45.9511 47.8899 1.46463
1 8.61231 19.8477 27.2486
1 34.1034 6.80157 9.58614