4096
 Atoms. Timestep: 3880
1 44.4826 25.3075 15.6024
1 0.438588 14.4246 27.2874
1 22.1932 48.9446 13.2717
1 34.4469 23.4424 12.6318
1 0.575385 5.81592 0.788472
1 47.2379 10.6068 26.8998
1 13.206 18.3784 14.8513
1 12.4972 4.26505 22.5048
1 46.4677 34.0269 35.9719
1 15.7441 13.7865 7.19138
1 47.234 8.38517 36.1062
1 27.6397 19.0508 3.6702
1 33.0448 31.3976 18.1078
1 2.95601 42.1052 35.2361
1 25.9441 4.50636 6.75614
1 1.3144 36.0888 7.95535
1 6.95518 14.7439 41.5358
1 48.4549 18.7652 7.09451
1 25.9009 32.5105 13.212
1 25.6909 47.5225 36.2043
1 16.6806 39.8401 12.9891
1 42.8317 5.92081 22.7345
1 22.1101 0.832393 15.371
1 23.922 40.3847 35.8962
1 29.0356 11.9325 23.6958
1 0.537817 15.6071 21.4964
1 12.4796 42.6627 16.5025
1 47.0009 19.1853 11.2757
1 41.3456 4.76256 16.2092
1 41.868 42.6491 15.3068
1 6.12075 5.07339 46.2288
1 26.8473 20.6504 32.0772
1 41.8886 35.7265 5.13217
1 9.43711 9.36065 20.2443
1 15.3841 40.94 35.2338
1 20.285 27.7632 0.29899
1 19.5877 23.9866 2.7157
1 26.5845 41.8225 35.4133
1 27.1443 47.4661 15.9498
1 34.6625 21.5487 7.77614
1 48.3916 47.5622 24.7176
1 32.514 49.0121 49.3146
1 45.5217 9.7249 19.7667
1 34.6049 34.9176 10.5559
1 19.6154 7.11511 20.153
1 38.2573 10.0445 3.98377
1 11.7803 8.77678 45.7602
1 2.93559 1.74593 21.9272
1 22.1941 37.0722 33.0962
1 6.66466 25.6697 1.09535
1 44.8062 22.909 4.08286
1 24.5519 48.1422 49.0135
1 48.9532 8.83392 45.031
1 26.6518 23.5988 29.8288
1 21.1092 28.5029 21.8889
1 15.5946 46.7391 2.28698
1 49.1538 22.9755 6.88637
1 14.4982 47.3845 15.1726
1 12.1025 32.7363 7.90651
1 4.20972 43.5561 19.6888
1 12.7763 29.2809 27.589
1 13.801 8.57709 44.0536
1 17.7925 4.55287 43.7154
1 11.0676 34.6903 24.1258
1 8.59151 44.9458 4.21342
1 1.32172 35.866 16.8903
1 6.86361 10.3722 40.1249
1 0.678464 27.8863 40.307
1 26.606 38.6291 8.69
1 36.7883 8.15768 44.2807
1 23.2725 33.0316 25.2644
1 41.1915 39.5637 14.898
1 43.1539 12.3315 0.101177
1 22.6013 1.9228 49.4847
1 24.4817 44.78 22.4822
1 49.2003 18.1597 2.78105
1 5.384 22.7805 16.7785
1 13.1664 47.5521 26.9622
1 30.3081 9.89967 20.4215
1 34.1513 35.8857 2.72225
1 25.8296 17.8505 40.2688
1 16.4126 20.3839 21.6938
1 49.3283 28.4512 37.5344
1 43.7598 12.7622 16.5288
1 15.0206 23.1412 16.8792
1 28.2274 11.7588 20.0459
1 44.6093 14.1256 40.2622
1 45.6091 17.016 12.6592
1 48.1421 34.6789 5.4387
1 16.2176 26.8593 20.9114
1 5.34944 15.6136 46.1322
1 18.0553 4.9268 19.6215
1 37.0189 33.142 24.7899
1 16.3533 37.141 13.1963
1 24.6658 30.7719 43.0865
1 26.0653 5.1222 37.9449
1 10.5814 11.2233 25.7885
1 13.9427 5.90773 19.0971
1 40.4922 16.4501 40.9126
1 20.9346 22.0729 24.9682
1 19.0673 17.2111 9.67378
1 30.852 6.27963 45.915
1 22.0621 14.6305 25.0083
1 5.17096 2.16965 35.2859
1 39.2419 32.4664 33.9929
1 21.9995 18.9695 7.03993
1 4.17007 46.1586 18.4965
1 3.34228 49.7988 24.6118
1 48.5585 38.9525 23.724
1 47.7272 21.6118 27.9381
1 43.3668 42.9392 11.7465
1 30.8997 22.995 16.8458
1 33.8626 40.0926 46.6699
1 40.1007 10.1469 19.0577
1 14.0776 31.7964 32.1814
1 44.6312 37.4502 8.06511
1 0.518806 39.4532 20.0087
1 34.0161 17.1591 47.6114
1 11.185 29.6189 20.353
1 4.95802 5.04871 18.0572
1 14.2113 1.53893 24.5224
1 5.97238 2.68976 20.2737
1 4.22922 18.2647 45.1056
1 40.9551 14.6164 14.5763
1 36.8782 2.17941 41.3258
1 32.9544 19.3481 18.1002
1 44.2517 30.8947 21.8275
1 45.3458 11.5192 37.4999
1 8.94773 10.7762 4.55078
1 22.7856 40.9587 18.8325
1 37.7309 12.2924 48.3554
1 24.9713 39.0042 3.85582
1 10.5462 28.1717 45.5363
1 10.0973 8.62008 13.6935
1 6.72355 37.4561 38.6659
1 18.6339 35.6543 18.4479
1 2.85464 48.3849 1.80454
1 42.2506 19.2856 35.944
1 0.481459 29.9434 18.2412
1 26.1792 47.0184 1.02795
1 16.345 27.1614 2.84091
1 40.7773 16.0193 5.71924
1 37.7594 24.904 27.6234
1 48.3725 36.4825 7.39726
1 39.4853 14.1217 49.6367
1 7.4225 2.88329 29.3493
1 33.889 2.7565 22.1817
1 7.17393 42.9878 43.8271
1 21.216 27.2401 34.9012
1 24.6884 7.73488 3.71276
1 26.7192 42.852 10.7011
1 5.35564 35.4673 14.3119
1 18.9889 25.8173 15.5857
1 32.1127 34.4739 4.14675
1 36.0139 17.0428 29.7876
1 7.08471 11.9738 42.1494
1 24.4195 11.851 2.92195
1 22.5518 37.3582 6.47647
1 11.0463 49.5587 32.0552
1 17.5218 26.7623 42.5528
1 35.0601 3.88937 5.73725
1 1.15393 48.5307 15.1442
1 29.1392 37.26 21.8645
1 7.76321 46.1679 48.7543
1 28.2038 2.89138 43.4439
1 35.8824 1.92984 36.1258
1 24.6522 3.13058 44.2188
1 8.1064 4.56077 42.4993
1 0.651698 10.318 49.4219
1 19.1335 44.4214 26.323
1 26.3105 40.0076 45.7754
1 23.5972 8.02574 13.824
1 2.58755 12.7932 2.75882
1 31.4657 15.4789 49.2224
1 3.33259 27.9498 47.0128
1 8.89412 28.4936 16.1993
1 16.5679 33.6986 15.9922
1 46.6571 36.5639 42.243
1 27.3484 21.7872 19.4537
1 20.5743 49.2092 17.1376
1 36.3266 3.52815 20.6028
1 39.1406 11.2387 28.7732
1 1.07963 3.4387 47.811
1 41.7485 20.9293 6.8599
1 46.2089 4.02457 38.6742
1 18.4991 25.5687 21.8897
1 5.99658 40.4234 3.25524
1 27.2911 33.6255 48.7897
1 28.7404 49.306 47.2834
1 11.3187 2.02142 44.1959
1 18.7735 8.7994 14.7858
1 31.4428 14.6732 30.0062
1 48.7608 41.323 25.1265
1 40.0589 36.7297 34.8247
1 13.4669 36.1444 36.9434
1 10.1373 48.9748 36.5773
1 8.90377 26.8271 26.375
1 1.20773 15.1099 25.0174
1 14.7094 11.8117 17.9396
1 6.44052 38.0693 4.84907
1 44.5777 20.6073 47.4256
1 7.25626 12.0694 36.7807
1 8.60875 38.5846 24.9367
1 35.7127 31.0597 33.8876
1 30.9718 26.4686 17.6449
1 46.4025 34.134 23.3857
1 1.76684 38.4151 17.2319
1 43.5616 14.5119 47.8732
1 8.55679 44.5019 7.67762
1 13.1304 28.538 0.143199
1 11.7731 29.9135 35.9404
1 25.1458 0.68006 0.416077
1 37.6881 23.5639 16.0127
1 45.7059 43.4966 10.0042
1 16.9587 34.4627 40.5674
1 10.6319 47.4448 34.3426
1 48.938 27.0961 14.2534
1 11.8113 6.65148 41.3203
1 21.9481 11.2039 6.15415
1 15.3845 26.815 44.2035
1 41.8866 26.4008 4.41257
1 23.7695 16.5043 10.024
1 37.0598 32.7448 4.50556
1 47.1464 4.50697 18.3363
1 43.1719 7.11168 41.2456
1 16.0895 18.4435 33.7894
1 39.2827 5.96 10.2493
1 32.4052 27.4268 8.25082
1 24.7111 49.7803 28.8258
1 12.9841 11.7441 13.3604
1 28.394 3.91198 34.368
1 32.3336 16.5748 39.4955
1 4.32307 47.2705 24.3731
1 23.5254 32.0166 38.5336
1 22.5208 35.14 29.683
1 2.4905 44.6561 40.8499
1 36.3592 25.5962 13.9279
1 47.2126 43.0872 46.0853
1 43.1956 40.1353 27.2428
1 11.5592 26.6442 23.7296
1 11.2249 1.78696 27.398
1 8.56346 34.8474 38.5877
1 37.254 41.376 23.1857
1 9.2502 37.9937 19.1214
1 4.03775 15.1258 42.256
1 17.9958 21.8668 17.4238
1 31.4609 16.8993 43.7663
1 36.6347 13.8632 37.3948
1 29.062 46.4533 8.35792
1 16.978 48.1468 8.85937
1 20.3576 45.2376 30.5496
1 32.6987 8.02251 4.85785
1 30.1602 28.4933 22.8135
1 24.7114 28.7829 41.0424
1 48.9674 49.4562 22.4646
1 48.1471 37.1574 38.4281
1 12.2225 17.2236 4.43374
1 0.0879763 41.3707 43.9817
1 17.6568 42.1381 39.07
1 17.5758 25.1146 7.07084
1 40.3474 8.80354 12.0544
1 26.346 43.3196 21.0745
1 36.743 44.3356 20.9095
1 35.2159 2.00621 49.1747
1 32.4454 8.5544 9.55432
1 38.2379 16.1235 1.07752
1 39.8003 28.0641 3.93756
1 17.1374 44.3845 5.78957
1 30.3251 47.3212 49.7009
1 30.5529 24.8298 36.2572
1 33.306 6.80059 37.9053
1 11.3218 13.1824 27.0929
1 5.70412 30.0443 6.72932
1 10.5 47.2232 38.3261
1 7.73348 22.6354 18.8747
1 20.2459 11.0729 14.4983
1 3.30751 13.6279 9.58934
1 9.25527 24.2542 17.307
1 27.5293 18.2431 32.8104
1 36.4473 28.5001 35.7207
1 47.5837 13.9624 26.3858
1 8.75106 3.17563 5.53683
1 5.02649 16.7169 37.6486
1 18.9914 48.5257 1.68669
1 38.7357 41.6286 32.9352
1 25.7265 47.1958 23.7971
1 14.6802 20.6936 33.2623
1 18.3041 38.8673 1.31053
1 18.1568 33.6938 37.7008
1 1.41372 46.3006 25.4549
1 44.7942 5.99108 18.5875
1 22.1156 12.9651 38.9895
1 13.1974 42.8356 10.6147
1 10.5395 12.4959 44.6473
1 13.4418 28.5946 45.3211
1 10.4307 24.514 44.1994
1 0.146619 13.6365 41.2621
1 32.1901 19.6388 36.9612
1 49.6684 37.6109 29.8274
1 10.9313 22.3578 15.9011
1 42.0485 28.5076 46.3254
1 43.0135 31.6952 24.89
1 37.7715 0.714625 49.327
1 11.1439 8.59216 22.1477
1 8.69473 17.3352 19.0706
1 12.4186 8.12795 10.7861
1 30.2846 22.6078 7.84126
1 36.7356 41.7943 10.6527
1 33.3089 13.3032 8.48275
1 35.9084 41.523 13.0916
1 3.83375 15.9378 25.4019
1 48.686 34.3882 37.8702
1 4.99656 27.1018 44.5581
1 19.9296 12.6381 10.1295
1 20.791 39.6579 14.7728
1 3.62137 28.666 3.40897
1 25.8265 4.98166 33.1566
1 28.9149 36.3813 38.0049
1 18.8081 42.9091 30.7639
1 3.33922 3.61181 12.3663
1 26.8371 42.1517 30.8817
1 0.426363 46.0277 40.416
1 39.7129 19.1616 45.7219
1 15.2673 22.7671 47.3292
1 26.032 19.4595 48.0167
1 28.4178 18.028 44.435
1 7.05463 5.43448 4.37414
1 17.3142 23.4197 34.9916
1 26.4393 46.8113 30.7372
1 27.0538 19.8306 24.484
1 44.6413 23.1715 19.2036
1 28.1533 7.77363 26.9381
1 39.2873 20.3628 38.3386
1 36.7749 34.2751 17.8834
1 2.92227 11.0726 15.5971
1 28.5394 7.97432 24.134
1 38.4346 28.9581 33.2341
1 19.9772 37.6693 3.22594
1 1.81284 37.569 21.3896
1 26.3752 17.2458 18.7192
1 4.78155 7.42278 19.8618
1 30.9698 22.6321 46.2424
1 46.6765 2.64465 28.801
1 20.8739 0.25297 29.928
1 39.0657 27.9016 6.6482
1 41.3325 25.5186 31.8576
1 32.7208 49.0623 14.2503
1 22.1622 39.6451 33.9885
1 34.1046 25.5454 31.1753
1 30.4628 37.8733 11.6154
1 7.25337 46.4779 18.9708
1 33.1653 25.4193 46.4877
1 14.2263 5.87537 41.122
1 35.7775 11.6722 13.2565
1 3.08274 43.1096 25.7239
1 16.6492 41.2094 28.1963
1 1.02677 26.9073 3.13456
1 31.8755 29.2985 39.8114
1 25.1696 4.52787 25.3569
1 32.8751 38.4501 21.7872
1 35.0364 31.5663 25.9687
1 19.4018 26.6761 10.8078
1 32.1455 1.17269 28.9605
1 21.6943 19.5 35.4239
1 7.59641 45.661 21.7248
1 30.2867 3.67311 5.37706
1 49.5067 27.6475 45.8919
1 8.06605 3.09787 37.8828
1 19.2238 10.1465 33.4245
1 6.46968 42.3842 31.5708
1 21.9764 8.10112 44.576
1 40.1516 5.97485 0.458003
1 47.8183 14.6142 12.3901
1 30.1004 26.3851 0.180147
1 36.5092 11.876 5.7048
1 1.1303 1.77873 12.3179
1 42.0086 38.1898 6.50897
1 24.5851 39.7605 12.803
1 17.8499 43.8052 8.73316
1 19.6475 46.4429 47.1909
1 14.0439 47.5093 44.8146
1 40.4189 0.422295 15.6942
1 20.8736 19.0623 29.1946
1 19.5165 7.40405 4.76093
1 25.9973 15.1832 40.9855
1 9.63903 18.5767 42.4787
1 1.19542 26.3388 48.0066
1 23.1845 17.0504 35.6756
1 1.10068 18.1913 39.0174
1 45.6234 18.7597 21.2678
1 36.0497 27.299 40.5702
1 29.804 7.57244 6.23783
1 26.7415 29.871 0.675921
1 13.4959 47.0454 8.0804
1 30.5415 4.2382 40.1172
1 23.6183 43.9877 41.3974
1 0.93992 6.03449 7.89934
1 3.08783 18.6049 49.374
1 33.2045 27.244 19.3646
1 34.4836 40.1271 36.2654
1 24.8438 6.85274 29.4304
1 16.0304 9.67521 13.9073
1 1.3286 4.61034 25.96
1 25.7381 31.4481 10.4779
1 43.0146 22.2253 46.148
1 6.78162 22.9327 14.2412
1 23.2573 14.2838 11.7471
1 39.2853 42.689 26.0296
1 41.7162 2.25433 21.8986
1 30.6378 46.2139 41.0962
1 29.2139 47.9089 31.8206
1 8.67926 2.89408 10.7609
1 27.6093 42.3062 23.0492
1 19.8369 35.0852 31.5939
1 2.29266 34.0897 40.9986
1 34.1255 2.07448 1.87555
1 13.8458 17.1569 34.466
1 24.7932 25.5851 35.3468
1 30.8114 43.5331 30.8986
1 29.3174 5.00265 28.3338
1 2.59563 41.9836 14.0813
1 12.1542 31.1157 42.181
1 49.0774 49.6625 26.86
1 33.3771 33.8232 32.9665
1 19.1763 2.85019 12.1765
1 32.5412 4.11335 29.3975
1 11.2524 40.1354 30.0555
1 10.6484 46.9723 2.37826
1 26.8747 35.668 1.16112
1 9.18525 4.45924 35.7279
1 20.8639 21.0247 27.5003
1 11.4206 16.5618 44.1332
1 6.37456 34.5556 42.8494
1 18.9362 21.8941 38.5781
1 0.436799 8.87907 13.3792
1 48.0266 7.15268 41.9749
1 20.7049 37.5904 39.3714
1 37.3106 48.632 18.2665
1 36.2071 24.5315 4.77092
1 6.3993 1.28944 1.17794
1 26.3625 47.5433 11.6266
1 4.98113 17.8485 9.50449
1 24.2545 33.8269 31.5538
1 45.9392 33.7198 29.196
1 0.138266 49.1281 5.44206
1 2.44405 16.8158 47.3475
1 7.19928 0.322819 41.9473
1 45.2365 13.4992 18.5725
1 41.8788 42.0701 0.298013
1 18.4318 45.5057 1.89759
1 8.71875 12.8128 13.4974
1 15.9362 48.0776 42.832
1 44.7472 36.5275 19.8607
1 0.127115 46.8262 35.0339
1 10.9188 12.6203 15.1032
1 17.5888 15.0086 28.9716
1 17.1131 43.9593 49.3647
1 44.094 32.7772 12.2895
1 5.09523 24.0641 12.0532
1 2.85355 1.53337 34.0682
1 7.70995 8.91393 24.1896
1 44.0472 33.5386 44.9861
1 43.651 12.232 31.3336
1 39.9236 36.3762 2.27464
1 32.0136 15.4795 34.8723
1 46.1506 16.4387 22.2775
1 27.5726 22.9445 26.2518
1 13.6299 38.9331 39.2652
1 10.6735 39.1631 1.80495
1 31.0433 21.0495 38.8853
1 8.06474 16.1539 32.9398
1 23.8461 27.163 22.3569
1 46.7814 6.87733 10.3339
1 20.9884 18.7131 45.1117
1 30.8258 4.47609 26.1042
1 48.1351 49.606 46.5765
1 15.5882 44.983 45.2868
1 34.5371 46.7769 39.6578
1 5.73804 41.8561 26.0745
1 38.24 40.2167 20.9259
1 24.9922 16.5322 33.7184
1 49.4535 7.17789 36.4427
1 46.0188 43.3347 48.4792
1 42.1885 17.2148 13.7431
1 5.00657 5.82064 33.6728
1 12.8201 45.3014 46.7032
1 1.66315 6.66553 21.5794
1 22.3349 16.7362 46.449
1 10.6774 39.2518 4.52804
1 16.4035 26.735 48.067
1 4.49852 37.9153 17.8814
1 27.9976 20.6462 29.2856
1 1.21861 2.80908 19.7486
1 9.25544 6.62348 4.79771
1 3.46746 16.3607 6.09646
1 7.41637 25.7255 15.4828
1 35.2844 45.4428 3.28659
1 17.7555 44.2689 22.9645
1 17.1626 17.7482 47.2897
1 36.62 44.2342 30.4497
1 12.0214 12.6774 3.4789
1 19.83 49.4498 25.9995
1 16.3185 32.865 11.2569
1 5.71448 19.505 5.75834
1 7.40124 8.41113 29.0557
1 9.78989 25.3925 3.13961
1 17.5232 27.9434 0.453526
1 25.751 15.2911 37.419
1 15.2717 27.769 11.8348
1 24.5667 40.51 31.9945
1 13.1577 40.7812 4.65889
1 41.7683 42.8878 20.4047
1 16.9157 1.51865 45.2528
1 19.0626 12.6147 18.1082
1 48.7576 11.9691 20.9941
1 30.7433 17.3018 35.975
1 12.8644 17.7399 11.1698
1 39.3224 8.38276 49.1909
1 48.9764 33.6952 33.3244
1 18.6721 40.613 41.1454
1 42.7776 21.1251 18.6446
1 22.5688 3.3192 16.4027
1 3.70624 27.9394 7.77634
1 26.0155 1.25441 9.16152
1 19.031 24.3755 29.3709
1 37.968 18.7247 25.9646
1 33.4368 32.1849 7.73091
1 35.138 6.13848 32.6157
1 36.9415 21.9984 6.08353
1 16.5859 17.7775 8.87014
1 40.7292 38.7471 40.0908
1 40.262 17.3502 21.0286
1 2.86572 32.874 23.2204
1 27.0069 17.239 35.8182
1 37.4265 15.0939 25.1894
1 42.128 7.80542 34.3016
1 18.3648 28.6623 15.0995
1 25.8949 27.585 11.7759
1 34.9842 30.7942 3.89746
1 2.76441 34.7551 14.7868
1 19.0538 37.448 11.8261
1 0.685653 26.772 32.0228
1 4.45341 25.3222 36.7045
1 38.4542 3.02456 33.2776
1 6.80298 25.1953 45.5243
1 45.0536 39.3129 14.4143
1 15.2725 24.2037 45.1552
1 12.4281 1.30784 3.08689
1 49.3752 24.2812 15.0771
1 39.6119 1.88551 9.96877
1 25.5214 39.6246 40.7594
1 36.499 16.9452 39.3011
1 8.14522 17.3356 15.3984
1 8.53686 22.9586 3.85141
1 46.6196 23.9296 14.7464
1 36.0804 14.138 47.2474
1 19.994 45.7359 34.8321
1 49.1033 33.4578 49.2996
1 12.7445 3.47885 19.8116
1 34.9921 45.2602 5.8777
1 11.209 48.4427 22.8008
1 36.6155 38.9528 14.8266
1 18.4008 10.1655 28.6158
1 25.8097 30.0867 16.8167
1 25.7387 13.9074 33.1314
1 2.89189 34.0148 27.8093
1 48.7783 15.4963 2.64368
1 14.1051 42.9409 30.3853
1 36.8947 16.1247 45.6726
1 17.2664 15.018 39.8495
1 3.12603 19.1544 23.6638
1 13.974 33.8312 33.9315
1 14.213 31.6659 4.2456
1 32.7284 38.5168 12.9795
1 28.2243 36.4321 16.8381
1 7.55487 16.2298 27.7416
1 15.378 23.7393 21.4974
1 36.4003 43.4507 36.7589
1 42.6219 46.6909 37.197
1 36.351 26.7935 33.1571
1 31.1593 9.77782 34.0095
1 37.7717 20.344 3.89519
1 30.6658 23.1016 10.3316
1 20.6511 13.1484 42.5893
1 32.7343 25.089 15.6591
1 0.0109104 38.2741 13.3392
1 45.7316 28.8009 5.64784
1 5.14417 11.1919 48.2708
1 28.2442 5.12841 45.0322
1 48.6334 27.8442 28.6048
1 2.34036 15.5647 30.6544
1 1.79732 8.9583 37.2119
1 32.1134 21.2199 3.09922
1 9.91471 8.70408 27.1746
1 1.84352 20.3138 35.4545
1 11.727 45.5005 22.2744
1 6.70273 6.42966 10.8827
1 11.2343 2.87958 35.1514
1 47.9861 30.2881 23.0657
1 13.5727 14.8833 3.03823
1 5.00602 13.6929 23.9363
1 41.876 39.8026 31.4437
1 14.3096 5.32806 14.01
1 21.5369 28.5494 16.741
1 44.0594 47.8928 3.14918
1 27.5294 38.3318 48.8034
1 23.5973 22.4915 6.58003
1 23.6852 45.2453 47.8214
1 35.7928 22.9088 10.2342
1 42.4373 1.53064 34.5562
1 33.3745 42.3658 30.5513
1 42.7297 19.129 11.4337
1 41.6503 5.48352 8.79756
1 4.35193 46.0582 43.727
1 12.0904 36.8211 1.24838
1 45.5408 30.023 16.3343
1 43.6092 1.59026 6.29087
1 1.49501 13.4424 34.4809
1 29.0647 8.26895 34.5602
1 46.9072 26.5164 2.90322
1 2.42886 11.7085 47.8359
1 3.38974 43.8929 1.79992
1 47.9335 11.6537 39.8913
1 34.1169 23.0308 20.2391
1 37.3098 3.92685 10.4183
1 10.9625 43.6608 0.208095
1 38.8124 48.0036 42.1671
1 17.1946 24.6067 3.00465
1 26.8005 12.6074 47.3924
1 32.8633 22.7618 29.6357
1 41.0478 9.41356 47.103
1 12.8345 45.1642 41.4034
1 34.9969 48.9117 34.233
1 11.0828 3.37915 8.43398
1 2.51806 18.0972 31.829
1 22.9046 32.4736 22.5901
1 14.6247 43.1897 5.66237
1 22.5376 30.2854 31.4359
1 19.1646 10.0507 38.0783
1 32.4792 3.24755 41.8484
1 38.7231 47.9425 48.1493
1 42.6552 13.3841 24.8042
1 6.17183 17.3198 21.4939
1 10.0547 1.24254 16.0823
1 23.196 19.837 39.3969
1 3.29561 41.0743 29.3635
1 10.1961 27.2749 7.63004
1 40.3695 33.26 39.4092
1 13.2238 48.3104 20.5324
1 25.812 37.7635 29.3877
1 2.55348 43.7034 29.9592
1 1.06758 43.9915 2.9581
1 9.17311 31.563 25.6731
1 22.9127 43.2671 24.0968
1 40.3534 12.3069 4.33612
1 21.9162 29.4439 7.07399
1 21.1797 0.976058 8.58488
1 43.8651 9.68047 40.3951
1 36.9774 31.1117 38.7118
1 45.4199 1.65496 46.0131
1 40.4971 15.6777 8.78117
1 44.7561 34.4864 42.5735
1 24.5353 38.5242 48.6629
1 6.67465 48.1264 23.2271
1 17.0827 20.4712 1.0668
1 21.4415 6.92618 36.1686
1 29.8203 15.4042 46.7021
1 13.9406 42.008 39.163
1 5.31897 6.26054 15.3214
1 3.72757 30.753 46.9034
1 40.8553 7.2314 38.6286
1 28.5999 39.8056 39.0952
1 20.358 29.8944 30.2111
1 9.19836 24.8121 36.3465
1 47.4844 45.2046 23.3134
1 7.54577 36.365 32.3629
1 32.7187 38.344 24.413
1 38.4782 17.8353 29.8359
1 18.6406 36.5895 9.19283
1 25.4454 49.1882 7.37173
1 16.548 15.103 11.8948
1 25.9968 14.1812 22.507
1 30.7474 23.8389 0.612757
1 13.0833 37.1441 34.4252
1 5.23674 22.6194 26.7193
1 43.7727 42.4092 5.74864
1 32.8006 9.55198 2.5288
1 20.3265 32.4099 34.712
1 37.2646 45.7137 25.085
1 32.8377 7.67144 42.2861
1 37.758 30.2039 43.0529
1 13.0202 18.6038 17.9288
1 43.1588 48.1745 34.6937
1 21.5801 11.6237 2.81314
1 36.9596 38.7854 42.7488
1 21.5833 3.84869 11.4443
1 17.2275 36.704 29.2739
1 7.28076 39.6791 46.5004
1 17.7209 34.037 22.7708
1 44.3501 44.4717 3.85728
1 3.70702 34.7751 6.18005
1 5.24693 24.4932 29.3425
1 35.037 36.9877 12.2544
1 8.58208 48.2118 6.28176
1 27.0162 35.1312 21.858
1 2.01382 21.7789 3.71127
1 18.0872 12.6642 13.7009
1 23.7585 16.8946 38.6109
1 43.5099 46.3189 44.221
1 8.98816 37.2123 16.1044
1 25.2245 25.6522 17.7963
1 15.7782 40.9737 47.5871
1 39.6474 31.8977 12.3557
1 20.5044 42.5781 12.5339
1 42.5781 2.55946 46.013
1 26.3641 5.88355 27.7099
1 39.4113 30.3378 9.96628
1 20.3019 8.38046 10.7263
1 49.2845 7.73268 9.82248
1 12.7493 9.04534 13.4992
1 42.5728 6.98067 15.2832
1 41.9329 8.83756 25.7131
1 0.791681 43.4853 15.447
1 13.3196 29.2946 4.85438
1 22.5142 11.7835 32.2473
1 25.352 34.1347 26.0496
1 27.5949 43.8162 7.04644
1 30.2955 9.78545 12.5617
1 34.3836 20.3899 14.665
1 13.429 26.2159 32.5399
1 49.157 29.0937 0.106257
1 7.74252 49.1336 44.5646
1 3.18916 29.3289 24.4919
1 39.4424 15.3948 28.9217
1 16.5463 30.4681 45.4605
1 24.9484 10.1712 23.9963
1 13.5726 48.6181 24.6079
1 45.7745 35.2129 46.5602
1 30.7734 48.6347 18.0994
1 10.3295 44.8329 15.3727
1 12.6288 23.058 39.544
1 39.4786 33.8776 1.19336
1 28.8028 26.237 22.5839
1 10.5659 35.7133 39.9339
1 47.1538 5.51401 25.5307
1 3.54715 47.6161 20.7826
1 14.9903 42.5928 15.5711
1 34.1579 29.689 36.8261
1 1.04853 45.9922 47.9714
1 10.2922 6.1559 43.3691
1 28.0975 45.5135 10.5388
1 32.8201 41.1856 17.5863
1 40.1815 43.379 48.1187
1 8.21807 3.28055 22.5753
1 44.186 28.5597 34.8542
1 4.39742 16.8924 35.1229
1 28.0713 3.75369 0.117986
1 42.5786 28.901 43.5505
1 12.4194 9.95619 6.03475
1 47.7032 34.888 44.6547
1 48.0375 32.2892 44.4692
1 43.2879 10.6814 28.2193
1 14.1375 32.4872 47.68
1 38.9388 25.3058 0.693671
1 36.5982 49.6429 27.047
1 8.71604 42.0464 18.1965
1 9.22921 34.5187 20.9047
1 40.9983 24.1028 49.0185
1 7.55183 2.2303 32.1254
1 3.60127 4.91105 27.5904
1 39.4256 11.5278 46.6194
1 30.9607 28.2174 4.04017
1 16.4819 40.3566 31.1147
1 7.58698 16.7866 8.74256
1 22.7446 0.379288 19.1859
1 38.8136 10.7508 35.0888
1 38.3974 40.9519 5.77415
1 44.1175 44.5481 40.0193
1 45.4636 29.2898 23.8851
1 25.2568 21.3234 17.2847
1 39.7265 38.7836 0.726902
1 41.0854 40.6475 2.5486
1 9.5439 35.8935 34.026
1 15.6057 14.4193 27.1926
1 31.2233 28.6075 42.4019
1 29.0543 24.5061 4.50679
1 30.1226 24.8751 45.18
1 30.0431 16.9476 38.3834
1 6.35209 39.5998 0.806851
1 27.3643 2.31398 36.1362
1 37.9179 38.0385 26.9787
1 26.6067 7.83026 22.3182
1 48.5386 1.74215 24.8441
1 10.084 5.72527 22.4557
1 38.4614 36.6783 39.0059
1 42.6367 1.63288 30.2412
1 23.5985 17.6425 21.7336
1 17.6689 27.5341 27.9959
1 1.53196 14.3017 48.5361
1 8.97663 19.1617 8.36748
1 24.384 20.3283 31.5619
1 16.0438 12.0467 32.2197
1 37.8555 47.4243 37.4141
1 28.4312 3.59137 12.3115
1 39.3874 0.985281 21.153
1 21.9689 18.7519 16.2273
1 9.84654 3.45752 2.24418
1 24.538 37.6451 1.31289
1 13.8009 -0.0250092 35.2095
1 37.2103 46.34 9.6647
1 49.6565 19.6089 19.7261
1 15.8485 19.5484 3.38288
1 13.9688 12.8194 35.9401
1 30.4494 35.3904 47.2347
1 5.28648 35.8347 9.71398
1 25.8984 28.9092 19.9114
1 37.025 14.1836 40.0472
1 8.79393 39.2638 8.20892
1 28.3049 22.4761 12.1486
1 19.7691 24.313 19.2678
1 41.9741 35.7408 13.2243
1 48.6886 8.17721 25.9075
1 7.73788 0.282911 36.6226
1 0.984213 13.1213 22.8082
1 35.6068 19.2524 17.3464
1 1.46218 21.0114 42.6835
1 5.61655 13.2512 10.9671
1 18.0082 45.923 40.7135
1 24.9238 3.73157 15.5714
1 48.8849 39.4719 6.91036
1 48.9389 21.843 38.4927
1 18.3334 48.9932 20.4024
1 7.16282 25.7372 12.6326
1 16.1783 5.38342 45.5197
1 41.1994 22.3426 26.7422
1 16.582 17.24 17.4429
1 15.1108 23.8791 36.7069
1 5.48656 9.90298 30.194
1 19.3157 8.54564 43.4477
1 1.41881 2.06215 24.4661
1 37.5446 21.6652 19.0077
1 16.6381 43.1364 34.3005
1 13.9527 31.4454 44.9282
1 48.7132 34.727 12.7974
1 13.757 3.75608 34.6016
1 14.2189 30.485 8.57216
1 33.6028 22.3348 39.2539
1 8.73575 43.6432 48.2425
1 15.4588 32.0168 40.7566
1 35.2672 45.8419 37.1482
1 6.01547 41.6259 18.6746
1 47.7116 19.7904 4.69518
1 27.3283 38.0182 25.1471
1 49.2419 0.722786 18.0699
1 21.5153 46.3275 4.30527
1 10.4522 45.9838 19.7287
1 26.8291 19.5257 37.4781
1 28.4292 13.0396 40.736
1 30.1753 36.9362 31.8761
1 21.766 30.0246 12.1294
1 8.3443 24.6422 42.3883
1 2.47878 10.355 6.34105
1 13.1048 27.7546 30.2902
1 17.219 27.8554 7.16938
1 33.0669 41.5976 0.500078
1 5.02772 45.7946 33.6847
1 45.8499 36.656 14.3545
1 29.1666 32.8933 42.6957
1 35.2007 0.950102 9.72063
1 35.0304 3.14433 24.6543
1 24.0414 12.321 25.3918
1 43.6791 47.5692 24.2996
1 25.4593 5.56192 23.0543
1 48.2273 31.2391 37.4286
1 32.5012 48.6883 27.6847
1 21.2432 28.9077 47.8514
1 49.0898 14.6116 43.9654
1 3.70577 8.50159 31.7473
1 46.1175 12.1323 20.4891
1 49.3353 8.18301 18.5716
1 48.5893 4.86333 22.7124
1 3.45242 34.8073 31.7458
1 8.72591 39.0891 41.1046
1 12.4234 7.27667 17.0948
1 4.57196 14.8528 13.9903
1 47.6496 35.7042 10.1298
1 37.1405 7.11479 40.5758
1 22.6019 46.4034 21.1691
1 15.3845 48.8333 37.8896
1 35.2925 6.85927 5.48503
1 36.5663 38.7287 35.2312
1 24.7915 46.7241 19.1915
1 19.5093 0.0761877 12.5124
1 24.7261 17.6634 0.885534
1 1.75687 27.7883 0.498131
1 32.6299 2.93677 6.7694
1 15.3696 3.24093 26.407
1 9.08478 25.8914 30.8909
1 6.75677 42.3972 4.7349
1 36.8623 35.635 32.1142
1 10.7969 49.2976 47.901
1 20.4368 45.7953 19.6813
1 4.02848 29.0705 32.6973
1 26.5732 7.89023 1.31795
1 46.9138 8.14341 12.8029
1 31.6026 27.9927 25.7425
1 2.00878 47.1814 4.2579
1 38.0154 33.3204 20.6074
1 15.6218 0.942006 31.2517
1 45.6082 5.85762 29.7805
1 2.64806 48.5658 35.216
1 47.0713 1.906 19.0133
1 24.3429 10.2899 5.14274
1 13.3994 0.727967 17.1253
1 10.5611 42.4719 28.9758
1 48.5301 10.0183 29.4088
1 20.7909 5.33598 7.27285
1 16.7849 43.995 42.8428
1 39.413 38.0563 18.1611
1 38.176 10.1143 21.2596
1 4.78015 46.4238 14.353
1 7.4775 14.8864 37.2183
1 21.7391 6.67497 12.2981
1 35.7533 22.9005 25.8411
1 41.8856 6.15937 5.41212
1 22.6093 13.2334 0.368962
1 2.14022 30.9771 41.9837
1 19.9493 43.5667 21.1559
1 2.92904 34.3317 47.7306
1 34.0045 13.4572 16.2919
1 29.0537 35.6059 12.3262
1 47.7801 24.0731 22.6919
1 27.0867 25.1674 10.8542
1 27.0334 9.71434 35.9825
1 33.8399 37.0678 40.2228
1 14.4826 3.34757 16.3571
1 0.194798 12.9875 18.4982
1 6.11404 9.29941 26.5766
1 22.0687 30.6293 26.8581
1 44.5095 47.9171 48.5354
1 19.1066 32.1238 29.009
1 35.0883 21.3704 21.9783
1 45.4021 26.811 24.0651
1 31.921 33.1066 14.3645
1 23.1826 48.2259 36.9679
1 6.43132 35.1979 24.4641
1 35.0811 27.2719 46.1887
1 23.8176 37.2572 17.062
1 34.5956 36.7551 27.417
1 24.0946 45.073 32.4322
1 14.6824 2.04278 7.75661
1 43.5787 24.827 0.260964
1 28.4936 13.9088 32.7377
1 4.27125 5.3867 5.98895
1 49.2707 46.3659 21.3516
1 19.1312 14.9946 11.2911
1 45.7994 43.8746 31.0934
1 34.933 11.0794 8.103
1 9.13281 37.2065 12.9192
1 37.5015 17.7257 21.4493
1 46.1048 4.27853 13.9355
1 21.7423 8.88584 41.8612
1 21.6996 24.4962 15.264
1 12.0427 35.2324 9.05498
1 49.1324 4.1501 36.2592
1 43.4985 40.225 46.5319
1 2.05285 2.56466 3.23332
1 43.2826 21.2908 12.9735
1 46.1046 26.8971 17.3269
1 29.0837 42.2784 36.6416
1 35.4312 15.5593 49.5491
1 12.9619 13.0816 22.583
1 49.139 32.926 20.1859
1 33.3068 42.9055 42.1781
1 45.8243 15.6213 42.4563
1 24.2439 37.5541 21.3027
1 2.6779 39.2782 14.6725
1 33.1743 47.8202 18.3611
1 13.348 0.384382 28.0194
1 29.8037 45.9029 12.7799
1 17.8279 18.5174 35.9671
1 7.65235 5.00633 48.6024
1 23.512 9.29438 33.2765
1 45.0377 46.0073 11.5507
1 2.53014 26.7017 25.4872
1 40.9737 37.8012 29.6732
1 39.6365 3.32601 26.789
1 32.1049 32.8816 43.5266
1 2.55518 24.8277 38.7394
1 41.2344 15.2143 47.9431
1 33.2557 25.5999 12.1922
1 4.63137 29.9036 36.7553
1 46.9523 11.2217 35.1794
1 21.3029 45.1369 28.032
1 43.9359 30.2508 4.05981
1 14.095 35.3071 26.5212
1 6.92263 18.6007 47.0334
1 5.22243 27.7701 27.8807
1 16.9582 45.9074 25.715
1 44.9177 19.0804 41.8514
1 26.8183 27.0674 36.9483
1 23.9692 1.02141 38.7648
1 16.949 13.8546 23.0371
1 19.6629 13.251 24.6194
1 43.3025 16.2047 38.8594
1 1.36013 36.5638 10.884
1 47.9996 11.9921 24.4547
1 30.5996 3.00159 0.645997
1 34.0491 45.3022 44.3657
1 26.6629 49.4821 40.2073
1 19.9228 29.3201 25.7147
1 28.7678 30.7877 24.7015
1 17.867 27.0691 37.1495
1 29.9649 9.54227 48.1635
1 46.3568 0.859939 2.81497
1 42.9413 16.5375 26.0988
1 20.2849 27.9673 28.3589
1 38.6016 49.4816 25.3963
1 41.2735 37.9045 48.2454
1 14.5143 35.556 2.31169
1 34.6902 11.3644 43.6038
1 19.2436 17.5522 19.5064
1 23.207 21.2215 34.1085
1 31.733 22.4699 22.9562
1 31.6268 46.4552 9.01408
1 18.7553 15.5119 0.914691
1 40.6499 1.70634 2.53863
1 12.8308 13.9286 49.5176
1 3.72864 48.5847 30.0732
1 18.3186 41.0856 18.6417
1 1.38202 45.08 17.7309
1 13.1693 19.7657 37.5482
1 9.58343 9.10289 6.68101
1 3.10011 22.2643 31.6747
1 42.5263 40.487 38.6391
1 28.3032 43.0555 15.5971
1 14.5015 30.9209 0.197002
1 12.3019 31.0928 10.7072
1 20.1961 20.3713 19.9725
1 48.2376 40.8861 20.8189
1 27.544 49.4315 35.4184
1 7.67466 3.47224 8.32534
1 16.8072 20.951 5.5169
1 40.0934 32.8306 36.673
1 35.7379 33.5241 7.12681
1 44.8256 42.6503 35.6322
1 37.528 47.9194 23.6401
1 29.3408 23.6377 18.6886
1 20.7967 28.8301 43.4315
1 39.3896 23.1117 41.7828
1 36.2467 30.1964 9.68241
1 47.6772 7.56912 30.3819
1 16.7426 19.7372 19.0257
1 21.0922 14.4997 28.0877
1 45.7017 6.64935 40.0423
1 18.3108 21.3727 43.9948
1 10.2376 2.80627 39.3907
1 4.66996 9.28391 22.5576
1 24.2233 23.3875 8.96903
1 14.995 40.2705 0.23398
1 10.8737 3.92377 49.1229
1 31.2525 25.8822 13.7511
1 13.7529 12.2654 27.3872
1 45.9098 45.0494 19.5319
1 45.1064 46.7717 28.2142
1 19.7165 2.37002 27.2263
1 0.800718 41.3397 3.33843
1 8.51236 20.4683 40.2412
1 8.43759 48.1916 12.4415
1 10.2313 2.11977 32.9277
1 24.6129 30.1695 22.3957
1 40.6758 6.5338 26.7779
1 47.9949 47.1189 47.6651
1 40.8711 31.0724 42.7648
1 24.5274 27.1854 25.6522
1 2.08547 46.0701 22.4034
1 45.3798 46.1844 21.7082
1 22.6208 1.35462 2.63501
1 6.59111 23.2515 21.4321
1 21.2016 9.78324 47.244
1 36.0933 4.82325 41.4504
1 5.85813 19.5097 41.1369
1 20.4812 31.774 10.6729
1 18.358 4.35707 7.79856
1 22.2847 14.3331 34.2278
1 38.6179 3.66559 30.5455
1 14.084 35.9589 4.90455
1 25.3017 33.445 1.936
1 15.567 1.01017 42.6382
1 40.4338 32.9297 18.3895
1 18.3918 40.5071 24.6733
1 18.4018 15.5344 46.1072
1 16.7017 9.66969 33.122
1 41.4151 4.42177 41.5696
1 37.9609 26.038 19.6905
1 32.2781 3.19123 36.9848
1 40.9931 34.9879 30.6722
1 47.9219 5.09694 48.8957
1 14.1844 33.0834 14.8405
1 25.7444 7.26274 31.8805
1 25.6371 23.3865 24.2151
1 8.33849 45.6783 37.5718
1 2.70581 8.8322 14.5521
1 39.5079 39.7284 42.1754
1 31.8937 26.8861 28.6802
1 4.01902 18.8417 28.2311
1 30.4585 16.1386 2.38612
1 0.129681 40.5962 32.7193
1 6.4587 23.4446 49.3563
1 46.9133 46.2333 3.50793
1 45.377 41.1745 30.5931
1 35.8039 35.1227 23.3808
1 20.054 11.0858 30.6488
1 41.361 44.5166 22.4289
1 45.2525 29.6875 13.2962
1 41.8217 14.4365 17.3035
1 33.5907 35.6987 35.9917
1 47.5528 27.2092 20.5724
1 8.02181 45.3504 34.5363
1 2.81813 1.48683 29.1351
1 11.5722 1.44246 13.8927
1 17.7738 38.3293 44.7136
1 17.4814 3.81934 37.4477
1 7.9501 19.678 18.0455
1 20.5193 41.9357 32.7522
1 13.3475 27.004 17.6749
1 0.800981 32.637 1.96285
1 39.2427 15.5003 44.5087
1 32.1669 0.931148 21.6531
1 20.3666 3.77393 44.641
1 15.9733 32.193 36.5855
1 12.0073 10.9471 35.7942
1 19.3852 28.49 19.813
1 32.2722 36.2437 28.6534
1 15.4966 13.1084 10.1129
1 21.2646 1.56925 24.2099
1 32.3593 2.93885 17.251
1 18.8404 29.1994 41.8769
1 22.9843 20.4662 18.577
1 45.9319 49.0633 36.2614
1 36.9255 47.8567 15.8346
1 46.9993 36.1128 1.49821
1 2.37641 37.2518 0.638522
1 29.3376 42.0795 27.1747
1 13.2691 45.0864 3.95322
1 9.79211 36.9199 42.066
1 43.7779 47.6585 17.3656
1 24.0844 11.6235 48.4605
1 36.0997 16.6041 23.2904
1 25.5286 46.837 3.72764
1 20.7032 24.7768 45.7945
1 43.8516 33.6955 6.41228
1 34.9598 14.1825 5.31874
1 16.1967 35.368 19.876
1 17.8542 32.5094 25.1327
1 27.3985 13.0119 43.9511
1 21.9178 35.2241 24.6986
1 22.0655 31.3542 43.1637
1 48.3995 47.1871 0.716416
1 46.7649 32.6987 13.2595
1 31.4376 15.9078 14.5385
1 34.8218 6.2802 48.1414
1 42.1946 36.2697 23.4684
1 14.4748 20.535 25.0583