4096
 Atoms. Timestep: 13700
1 6.90682 44.2661 6.9953
1 23.2143 21.7564 22.068
1 23.2773 5.00315 23.5618
1 24.3456 42.3118 3.67883
1 16.9122 4.35425 25.8635
1 13.4192 47.4176 35.5763
1 21.5062 31.0645 4.70037
1 37.222 46.3822 12.4254
1 5.35624 6.25192 34.5573
1 42.1508 1.58314 27.5665
1 16.9918 12.9658 5.6836
1 49.6506 3.06825 32.7622
1 9.90825 14.2676 1.60281
1 14.292 18.8581 23.352
1 32.8441 20.0145 47.1208
1 18.631 7.0184 15.8058
1 46.8139 45.488 27.5409
1 6.73285 25.9045 1.04393
1 6.32494 18.0195 13.1801
1 47.3985 16.887 16.4689
1 37.078 13.0651 6.01016
1 7.04093 25.2292 12.7446
1 4.12125 36.4219 39.1402
1 8.85391 11.9114 24.5102
1 16.2751 49.5292 43.0553
1 46.2831 37.4046 19.3906
1 3.00117 12.1113 18.3923
1 3.47077 12.144 23.4695
1 1.35049 0.0645369 31.5114
1 0.862742 39.5195 0.292559
1 34.6279 45.8433 48.2761
1 5.80546 6.21859 22.9889
1 41.0468 1.45603 13.7322
1 6.26927 26.8609 22.9589
1 30.7202 42.4973 45.1131
1 10.9748 46.5779 12.9542
1 3.74871 20.9699 38.9145
1 19.9901 18.4424 44.5511
1 1.58072 38.4209 17.139
1 39.9359 5.38205 6.73068
1 21.8695 35.3465 24.9928
1 28.5528 26.4558 24.5059
1 4.74082 42.4728 6.20399
1 34.6061 37.3102 48.1294
1 5.63949 13.3591 7.71779
1 17.8976 24.8416 31.7305
1 34.5085 36.5254 19.4638
1 16.1842 38.2803 13.9771
1 7.78616 6.74637 9.16011
1 8.22559 28.5132 19.0283
1 11.5874 0.433434 24.9023
1 28.3816 11.93 42.8394
1 21.4247 15.635 31.8168
1 7.41164 26.086 40.7923
1 33.8646 21.519 14.6851
1 39.6274 18.4687 5.40682
1 35.2925 20.7013 18.5853
1 3.98659 13.7481 43.0493
1 38.8346 8.35113 41.6792
1 16.3673 30.5409 19.6268
1 40.1611 41.1954 35.7318
1 10.23 41.9747 34.6563
1 42.7606 36.6658 45.9516
1 4.95948 14.9184 40.8013
1 1.05302 9.22284 15.8891
1 0.675955 3.31144 11.9333
1 42.2949 11.3466 43.2382
1 44.3418 8.85676 25.2488
1 22.4032 16.2975 40.1955
1 42.5231 21.4977 4.50379
1 23.3996 15.3297 14.0436
1 41.8165 11.4645 34.0908
1 17.7548 47.0091 33.8639
1 40.2833 47.935 6.87371
1 25.48 7.3705 14.8259
1 12.8366 8.07101 20.7038
1 3.75403 22.6368 10.7612
1 10.3006 34.9496 16.7563
1 28.8677 31.039 28.2366
1 5.1997 23.03 7.12369
1 35.9382 1.3073 47.9949
1 19.9791 7.35833 19.4789
1 12.295 4.22299 7.30216
1 6.56457 42.6569 16.5093
1 24.425 13.0629 8.76602
1 22.591 47.5653 40.4441
1 22.7609 36.9676 7.88645
1 5.71292 36.3295 11.0529
1 2.64424 30.6568 15.7116
1 33.9121 44.3613 29.557
1 24.546 48.7806 29.653
1 12.812 46.6715 15.4498
1 34.2828 11.9461 43.1882
1 34.9374 5.60739 10.4818
1 11.2404 4.58546 26.7822
1 0.408114 23.0554 19.6797
1 19.297 0.868567 41.0334
1 21.8336 41.5943 42.6554
1 23.2221 6.18094 45.9634
1 8.40922 36.688 40.522
1 31.5659 10.363 31.9198
1 10.0966 12.5162 41.7359
1 15.7647 22.6816 13.0105
1 6.44619 22.3454 16.6286
1 14.6013 0.755711 13.9525
1 33.7033 39.5257 29.1439
1 0.872925 20.2832 9.75022
1 4.6336 11.0658 3.53109
1 27.8403 4.34246 42.9562
1 10.0907 44.1172 0.162666
1 38.6465 33.5183 16.6357
1 21.6793 42.0925 26.5792
1 33.198 27.107 36.8959
1 2.83845 36.5074 43.726
1 36.6316 35.3627 7.74596
1 28.3749 38.1809 6.09747
1 29.0922 22.0331 41.2323
1 38.2063 8.27827 35.3027
1 36.3708 33.2479 28.9874
1 16.8883 1.28633 15.2593
1 19.114 18.9083 0.732181
1 41.2726 11.9258 19.6672
1 41.3167 7.55622 25.2102
1 21.4265 42.3209 3.99093
1 18.1681 47.0276 31.0798
1 38.5924 18.027 35.9617
1 26.3941 36.0402 33.0393
1 4.26536 31.9696 13.9068
1 30.0934 40.2368 2.30588
1 47.3309 8.55745 11.1686
1 25.8226 36.6399 19.3247
1 31.7191 21.5042 31.8311
1 28.8289 2.23802 46.1237
1 16.832 49.388 11.7301
1 10.578 6.39865 35.7304
1 43.239 29.9899 4.21256
1 46.8654 21.946 1.43787
1 15.5251 48.605 21.9071
1 41.4863 4.70997 35.7171
1 45.0201 28.7229 19.5207
1 18.5503 4.99304 34.6167
1 28.6038 38.2496 19.9039
1 23.7062 10.7748 35.7299
1 23.9835 46.0269 13.0157
1 38.7765 31.8267 9.42032
1 48.9148 36.7386 13.0245
1 48.1834 16.3997 12.4838
1 38.0005 36.1974 35.7238
1 14.4309 23.4362 0.461269
1 3.68911 30.058 7.06269
1 10.4751 13.0367 9.73512
1 42.1 4.16485 22.0896
1 1.03804 27.3183 24.9641
1 41.7973 0.648188 30.2993
1 11.1802 39.2483 17.7682
1 41.0002 40.8119 32.193
1 31.1448 4.60706 38.7648
1 18.9962 10.4827 25.5916
1 32.7533 2.83484 2.9717
1 38.7364 15.6212 49.0456
1 33.1213 42.1467 46.2086
1 26.2803 45.0656 44.6297
1 47.5631 15.814 35.4862
1 27.2285 20.1105 14.0392
1 40.0238 0.305827 8.32898
1 47.8105 46.4937 19.2332
1 35.3493 23.3977 18.2846
1 33.4064 34.2366 28.2621
1 41.9627 46.8198 20.0856
1 32.288 8.67012 1.58601
1 46.5569 10.6554 7.58334
1 42.5058 30.5619 44.6071
1 16.5501 15.8438 25.3631
1 38.2886 12.0427 41.5887
1 30.2847 42.9957 20.51
1 19.0609 31.4758 8.338
1 11.2602 16.0462 41.7158
1 14.8048 2.34799 22.8433
1 23.4618 31.9973 23.5107
1 9.74079 34.3909 37.0058
1 38.058 17.5169 16.989
1 8.51987 14.3411 17.9592
1 24.4851 46.4689 38.2505
1 2.53089 10.2276 45.0101
1 12.9387 0.389494 41.5617
1 28.8322 19.0431 36.4365
1 22.2126 10.0089 29.256
1 2.65505 26.1521 21.6895
1 31.0625 40.4307 43.3432
1 12.6029 8.47313 49.5216
1 0.74979 36.9703 35.2185
1 14.6327 33.8177 35.7178
1 22.9033 33.5107 37.7872
1 4.03478 48.8729 3.71573
1 48.4645 10.9698 20.2203
1 29.5431 33.7778 0.639953
1 42.5201 46.2126 6.63786
1 30.4036 32.677 23.044
1 31.0289 15.6047 42.1093
1 46.8149 23.8061 25.2601
1 29.675 20.3478 20.0398
1 5.67973 14.8933 4.67928
1 43.6401 10.4213 21.0439
1 37.1079 19.9424 28.8844
1 44.1253 10.8633 45.5801
1 14.6112 39.0366 9.97205
1 17.6821 17.2192 7.28339
1 42.4008 34.1911 13.3242
1 28.1398 9.99661 8.13366
1 22.4085 24.0333 30.9083
1 46.6881 47.5985 38.6205
1 36.2638 4.27301 25.5575
1 33.4849 12.1674 40.6407
1 16.7468 42.9042 46.0098
1 12.1328 33.7912 15.033
1 7.4926 4.91586 25.1179
1 12.8628 35.0157 26.9443
1 28.667 37.0651 29.8764
1 49.4137 9.64653 46.8492
1 45.2715 10.5681 5.40162
1 26.0702 45.2574 10.9702
1 7.71073 38.6756 7.04124
1 30.3523 23.3984 45.7867
1 23.8851 3.21935 30.4634
1 29.904 28.9139 16.7453
1 10.8714 9.13524 22.2512
1 25.3925 19.9147 35.7346
1 46.4784 7.8679 18.9176
1 34.2503 3.44483 0.560171
1 22.0787 33.9194 44.3049
1 27.3785 20.5347 4.47135
1 31.9929 35.2371 20.3983
1 25.87 39.1747 13.3381
1 18.9117 4.04453 20.2141
1 23.9042 8.87572 45.7984
1 11.9943 42.9774 23.602
1 10.5117 14.3042 31.8848
1 48.4199 10.4526 44.2154
1 0.625203 19.8499 2.23714
1 46.0284 21.9591 44.6851
1 34.9497 13.919 47.9302
1 18.9046 41.2315 42.325
1 35.1174 16.7753 27.8614
1 38.7461 48.7446 13.8124
1 15.1037 43.6381 48.8326
1 19.9127 16.6531 21.7857
1 19.4771 34.988 15.1466
1 15.9958 33.4136 44.0494
1 40.9144 47.0286 10.2372
1 20.9633 8.93581 21.8625
1 41.8719 39.0214 2.80572
1 22.3619 14.1629 41.9482
1 38.3387 38.5305 29.556
1 35.435 2.00867 34.2289
1 6.33844 11.1373 23.3565
1 7.0931 44.7916 3.46667
1 33.3425 24.7257 23.2986
1 1.02242 18.7122 7.36967
1 42.2005 24.6606 39.8475
1 7.64409 0.965066 37.0361
1 20.4109 6.04632 13.7775
1 20.4931 17.2948 7.40359
1 38.2381 0.0890963 37.9593
1 41.0364 14.4746 44.7721
1 1.73634 4.66388 24.56
1 2.08903 5.3297 15.3604
1 35.5003 18.47 10.6753
1 17.5671 36.3036 40.6958
1 13.9802 1.86094 48.8495
1 44.2418 28.1543 25.8813
1 4.60946 44.1302 25.8437
1 36.521 25.1209 26.1875
1 39.3302 38.3116 13.9449
1 12.7733 20.4986 10.302
1 7.76727 20.1387 0.833435
1 6.29233 23.1377 3.35758
1 47.6234 38.9621 38.4682
1 40.7721 16.9146 32.7547
1 19.3239 33.8006 47.4021
1 8.8427 2.32093 46.5082
1 27.47 14.712 4.89721
1 10.3561 17.5011 14.4147
1 48.8888 44.9099 45.0639
1 6.28017 25.1007 24.9037
1 19.2977 45.4637 5.16328
1 49.6684 19.1751 11.9562
1 16.9889 9.99863 49.0762
1 44.9078 2.33728 12.6022
1 4.08681 39.383 17.4234
1 26.2012 31.6105 23.1452
1 41.1147 22.0407 30.4423
1 4.25723 22.2059 42.9307
1 49.3888 19.8437 31.215
1 8.48843 41.6478 41.6594
1 30.0796 9.63105 43.4213
1 46.205 25.2766 9.65827
1 41.1896 14.5932 17.8966
1 31.7554 24.8875 41.841
1 38.0151 21.0912 39.4622
1 21.1523 9.60001 42.8027
1 1.75843 39.2046 21.1922
1 5.23077 31.4356 22.1687
1 28.2629 46.9211 14.272
1 21.2184 7.04147 23.7739
1 2.53143 2.29693 41.5944
1 27.293 14.3519 8.18067
1 4.92905 7.06574 4.93491
1 48.12 4.72744 12.2073
1 1.23831 14.1108 22.2584
1 13.1652 26.2649 46.7768
1 3.37821 36.5911 26.644
1 39.5955 8.32423 47.4775
1 0.297296 48.2501 43.4129
1 4.44531 42.8862 9.06929
1 46.7159 34.8408 26.5677
1 42.5163 40.2508 15.1451
1 31.8211 5.41306 49.4917
1 2.537 16.2484 18.3614
1 34.2557 17.2803 39.1375
1 22.5449 5.94217 15.6662
1 47.1941 22.9811 11.1544
1 39.6427 28.3359 6.86043
1 46.848 24.5552 35.1445
1 12.8779 41.9215 26.2307
1 6.67647 4.38068 31.2776
1 37.531 33.2964 25.9108
1 1.25609 34.4921 34.4319
1 4.5618 14.7615 33.3302
1 37.9337 8.13908 12.5744
1 48.8789 6.58879 10.0038
1 22.9427 30.6229 21.302
1 19.7929 2.54303 5.37778
1 22.6235 38.7019 22.8674
1 33.407 1.62415 22.3477
1 2.34604 19.5333 5.21727
1 42.9057 32.2881 48.85
1 35.6953 40.3249 19.4618
1 44.7575 44.511 2.49351
1 5.79904 42.1972 33.3112
1 42.296 11.8771 27.4442
1 10.5606 45.5891 25.7428
1 43.4115 32.0853 34.2612
1 2.91897 27.811 47.4971
1 5.44165 3.07019 3.06401
1 41.9104 18.9102 30.1055
1 47.2762 11.1653 13.2288
1 4.1781 14.8516 21.9924
1 38.1156 12.3459 46.3596
1 31.0469 22.722 43.0593
1 30.2267 20.9474 49.1569
1 20.5868 0.352815 4.68335
1 28.9729 7.15484 7.78429
1 0.517217 24.6471 10.193
1 9.31561 19.5828 45.5404
1 2.02383 32.8344 38.7277
1 40.2542 34.8161 5.19686
1 5.26872 9.25534 35.9196
1 10.4377 6.18537 9.87022
1 2.09634 5.24603 21.2782
1 14.3698 12.6608 16.8069
1 25.5476 24.1107 14.2029
1 2.15283 32.176 30.9193
1 32.3226 47.0606 48.4887
1 13.8103 16.4555 45.4294
1 6.8506 1.66094 24.2362
1 16.8029 27.4695 35.4922
1 10.7219 9.18092 7.6875
1 32.8746 15.3658 25.7587
1 13.8874 14.8775 7.1088
1 45.7742 7.33927 23.5837
1 42.1751 0.814127 24.588
1 38.968 16.3389 46.3865
1 14.7217 11.8535 9.85082
1 16.538 11.616 45.8097
1 46.6054 37.8912 40.951
1 40.4431 48.692 35.9459
1 12.1411 34.3457 9.60472
1 34.8147 47.8911 11.6758
1 15.2001 12.0171 3.58573
1 8.83314 11.0931 45.2484
1 11.3023 24.0298 30.9601
1 4.50129 48.6188 42.6576
1 42.7494 33.4844 31.8843
1 43.2555 49.6219 21.9002
1 34.6036 0.144915 9.65647
1 7.38601 44.4772 29.2453
1 17.8136 23.2788 1.57977
1 33.9 13.0662 17.3336
1 20.1297 1.61286 36.1216
1 30.7658 47.8402 9.72744
1 16.864 20.6993 4.61922
1 13.9444 13.7777 23.712
1 0.632802 33.1708 12.0973
1 46.325 21.7368 17.3278
1 40.8934 4.80198 45.9085
1 19.5927 1.09729 33.6686
1 31.2828 34.5808 35.413
1 24.515 13.2698 47.7998
1 42.1866 14.444 8.20116
1 48.5617 10.0119 37.0296
1 39.4012 48.9542 45.2328
1 4.07301 22.7776 31.198
1 18.976 3.39546 0.99968
1 15.6618 31.9918 10.1613
1 5.55774 46.4424 6.42597
1 17.3609 23.9189 44.367
1 31.533 8.27155 29.8723
1 24.8362 42.8495 11.7062
1 9.78442 23.078 20.3181
1 18.3443 26.1143 37.1462
1 24.9543 22.865 11.9907
1 2.76557 6.57092 46.2956
1 21.5407 48.5151 8.82472
1 16.0683 49.7519 25.9926
1 39.5071 0.996842 26.9812
1 11.9424 10.415 41.7481
1 25.5639 27.8551 36.0277
1 14.8114 25.1973 39.6803
1 1.65441 40.5766 4.79403
1 46.8586 7.84334 48.4558
1 15.8827 2.22508 11.1808
1 36.7667 5.20081 45.6568
1 26.2375 14.8182 29.855
1 1.07379 47.4427 30.4319
1 12.4861 28.1791 28.0534
1 33.7493 3.22254 41.968
1 24.2253 11.6271 38.3946
1 7.19694 28.0656 27.1253
1 5.27576 47.9902 21.4696
1 35.2988 13.5834 22.2007
1 32.2078 5.0138 23.69
1 36.9731 8.06114 23.485
1 24.874 0.52055 36.6231
1 39.6078 19.5824 1.00995
1 36.2459 15.7986 9.91263
1 14.5103 3.51787 45.594
1 31.0284 18.8748 28.9249
1 34.1853 39.3333 24.0899
1 22.7918 4.62658 28.2776
1 23.1287 24.9507 19.3662
1 0.748979 46.6966 24.5692
1 39.7932 1.56792 5.3092
1 44.9019 2.80217 0.793631
1 24.7277 9.42731 0.00137211
1 46.1474 38.0007 36.4585
1 41.3799 9.75562 38.9297
1 5.47935 26.0105 27.1786
1 6.65023 30.4879 13.6583
1 26.3592 3.45739 4.16459
1 23.2493 37.761 16.3384
1 38.2405 0.0849024 19.9915
1 20.7463 29.9704 37.3393
1 6.54536 31.3949 32.5513
1 17.8188 16.7668 36.416
1 8.34142 37.2734 25.9846
1 33.1688 17.0474 21.3948
1 15.7109 32.9354 20.898
1 3.74495 0.990193 10.3885
1 19.8173 21.6787 0.232156
1 45.6413 24.3029 19.7651
1 42.6378 38.0074 39.5794
1 13.9633 17.228 28.1644
1 7.68586 20.4222 12.7497
1 46.2671 20.0195 31.19
1 20.9229 19.7795 8.42601
1 35.2885 12.0999 26.8424
1 17.1273 19.7351 22.9595
1 6.56483 43.9308 48.0935
1 23.5041 1.40513 3.66783
1 4.78334 29.6174 9.50667
1 38.4372 38.2679 25.0752
1 22.9037 34.1338 7.91022
1 8.79549 30.82 2.42271
1 19.2249 21.3182 44.3218
1 17.0054 26.2474 26.0822
1 47.5123 6.21178 2.93976
1 14.3784 34.3344 19.0227
1 42.7375 45.7583 33.0686
1 39.2254 5.39554 19.1455
1 2.02038 6.82198 41.8472
1 27.0534 48.2902 46.9266
1 40.2389 23.0706 12.1584
1 19.8515 3.44884 12.4387
1 43.4854 3.17268 40.1753
1 49.3031 7.39044 22.6114
1 23.3805 26.0451 43.5718
1 38.8795 31.989 33.0938
1 13.7895 8.58072 45.8898
1 32.4259 46.8609 29.2109
1 47.6516 33.5589 37.0236
1 12.3484 36.9546 22.1555
1 23.2997 13.6382 35.3825
1 16.1502 38.1934 25.3895
1 24.8252 44.9794 42.3882
1 13.2159 21.0052 47.4102
1 15.8469 35.6524 24.0875
1 19.7258 49.039 27.0758
1 3.39557 45.0378 35.3547
1 4.47738 18.6691 31.084
1 42.1322 1.24372 39.2969
1 34.066 1.77367 31.9365
1 2.70516 34.5105 17.1051
1 23.7911 18.0752 2.74948
1 20.467 44.0884 32.8899
1 34.0625 38.7889 17.9798
1 4.08988 32.8425 46.6983
1 5.97946 38.9312 48.691
1 1.01033 6.36427 0.352939
1 10.3498 46.0768 41.0392
1 6.6331 43.1885 27.1133
1 15.6596 5.13237 13.7631
1 28.7215 42.0505 39.5982
1 4.90781 17.6827 40.4854
1 5.22733 45.3849 30.4843
1 48.349 8.68211 33.0735
1 0.089591 0.996857 43.0713
1 16.5 19.8792 44.5335
1 14.702 33.7772 28.5661
1 43.1293 6.70658 41.8901
1 1.17824 3.7454 0.516221
1 39.1737 29.1286 48.8402
1 14.0992 10.7206 22.6427
1 33.1575 31.475 27.3606
1 26.6499 17.6085 39.5625
1 5.23496 8.48505 31.4073
1 33.5459 44.8402 5.94151
1 19.857 38.0089 8.7957
1 30.8224 16.2619 37.8639
1 47.9213 13.698 39.3605
1 37.5987 24.9771 16.7398
1 34.5914 46.8169 20.9175
1 25.0418 33.771 3.29222
1 32.382 36.3463 43.9831
1 19.3922 39.3409 47.9065
1 44.6536 20.162 1.18617
1 42.4409 44.5626 1.23996
1 35.8288 4.1122 38.6324
1 46.8977 34.47 33.0185
1 31.8983 22.4132 22.3255
1 7.39268 6.0387 20.6449
1 37.8306 34.8762 30.4792
1 8.73375 5.35229 37.7435
1 13.9971 47.7 23.8557
1 31.5794 45.8612 1.50431
1 9.31413 46.3295 28.2329
1 25.9459 37.4649 30.7975
1 41.8591 22.0421 44.2849
1 46.4544 4.54124 34.7381
1 0.140437 21.1297 36.7895
1 8.0483 47.9313 17.5366
1 43.3858 22.4547 29.2211
1 37.172 42.7957 24.7115
1 5.6867 24.927 39.2867
1 4.65132 23.7926 14.7236
1 10.6112 1.89426 14.1669
1 9.14881 3.88196 21.0295
1 45.2201 41.1341 11.5859
1 46.8491 10.4864 48.1414
1 0.223086 34.011 0.769024
1 13.1613 10.1521 35.7026
1 40.169 46.5386 49.2033
1 46.3185 15.7222 48.1877
1 36.0044 23.1175 48.9821
1 23.6297 16.4442 17.9777
1 41.4318 13.0029 11.2971
1 5.90152 31.1054 48.5847
1 42.1295 32.4134 8.05698
1 27.9449 42.9788 41.8931
1 8.11045 48.7962 28.1507
1 23.2717 13.7846 31.5567
1 47.3371 0.328298 29.3635
1 30.5816 20.9612 46.1591
1 17.1856 0.0412946 33.8823
1 3.98235 22.7254 22.141
1 49.162 5.66757 18.8201
1 32.1353 35.4887 23.5905
1 7.12641 48.1559 36.0834
1 7.02981 34.7465 2.01541
1 42.5052 6.31837 6.40261
1 38.6343 46.6509 34.4888
1 36.529 26.4966 45.7774
1 45.4651 6.25395 8.12741
1 7.46216 16.1541 44.4432
1 42.5975 24.0538 27.4424
1 0.742899 15.171 46.7775
1 32.6937 47.7239 3.23933
1 6.48677 40.2804 40.0737
1 13.3182 2.82915 33.3892
1 33.4782 4.94369 4.22818
1 9.88979 8.5075 41.6052
1 6.80784 17.1752 5.05667
1 8.54225 49.2031 1.73611
1 24.7925 23.9846 49.3932
1 33.245 37.1277 10.0176
1 35.6325 26.2431 23.1547
1 14.9286 43.1385 23.2601
1 46.7468 10.8325 26.1086
1 5.62127 41.045 28.0486
1 18.457 36.3257 17.4246
1 6.02791 8.49141 11.0339
1 41.2665 21.0621 18.69
1 27.3376 21.5862 28.4067
1 24.1813 20.3731 46.5631
1 9.46837 47.6343 43.2939
1 29.3031 45.5552 3.24594
1 39.8084 45.3607 15.1887
1 16.4996 24.7206 14.9204
1 39.1688 6.26171 26.955
1 12.1011 4.02462 46.7676
1 33.1173 37.9604 33.9502
1 4.0979 24.6524 43.8885
1 30.6718 40.1809 40.5007
1 43.1714 46.9337 22.8002
1 41.4747 8.64975 42.8921
1 13.6474 44.1863 42.6611
1 7.65514 40.8003 14.7681
1 17.3678 7.61006 0.431323
1 46.2784 6.75005 45.946
1 2.33682 39.649 30.4245
1 26.9505 23.2929 40.7586
1 4.75448 47.8296 47.6557
1 33.1856 8.21526 7.63275
1 13.7555 44.3665 32.8908
1 34.0313 10.3 28.1153
1 9.40738 43.4192 30.8143
1 45.163 4.73366 24.2617
1 28.5303 33.8689 9.98349
1 4.85133 15.9339 35.965
1 42.1408 25.1457 7.55603
1 31.8241 1.39755 12.2055
1 2.25683 0.414042 26.7532
1 19.8981 9.00871 17.388
1 10.8997 10.9488 5.77565
1 19.1705 1.42058 14.0935
1 48.3069 8.46305 39.4626
1 1.7789 43.3351 46.8309
1 27.44 17.496 4.0985
1 2.16515 44.1583 32.886
1 47.6803 38.4286 22.2647
1 21.3046 23.3045 47.2239
1 47.7472 41.3913 46.5512
1 5.04856 17.9636 3.00284
1 32.1914 17.1033 35.9091
1 8.90558 8.03761 25.963
1 3.31415 46.6616 10.3769
1 36.7547 5.23316 3.83468
1 17.8311 25.9595 46.2319
1 9.02878 0.108095 25.72
1 36.0552 31.2394 10.069
1 17.766 45.6247 48.628
1 41.5437 12.4739 4.3477
1 11.2754 4.19568 42.5612
1 2.41409 20.9148 25.7013
1 37.2261 20.8741 49.814
1 25.082 37.2551 44.6439
1 4.0663 24.6907 17.6302
1 7.22568 37.9714 36.3806
1 39.8858 16.9763 19.1381
1 8.40219 12.1373 29.563
1 16.1475 12.0313 20.847
1 44.7352 1.07107 17.2586
1 18.0605 11.009 14.6137
1 6.5329 10.0906 41.7165
1 39.5922 10.7335 12.3794
1 8.40113 30.2892 34.0257
1 26.3865 34.0012 29.2471
1 37.1259 40.9218 22.2843
1 19.1855 45.0397 2.37539
1 32.3567 3.70077 31.9243
1 44.0175 43.811 41.9969
1 20.4054 6.3338 28.6178
1 24.7918 39.1408 4.01633
1 2.51618 14.2171 7.49273
1 14.4179 5.95466 36.1159
1 3.19513 3.00154 5.93527
1 34.1159 42.1301 27.8817
1 17.2058 12.7145 35.8634
1 25.4471 44.6062 27.4581
1 27.628 24.1932 38.1786
1 15.0258 3.70014 17.9409
1 21.547 7.74945 0.292397
1 15.6179 17.163 48.8145
1 46.7847 47.3111 23.7196
1 29.7358 39.8622 30.2449
1 7.65295 22.9365 33.169
1 48.3906 31.1718 11.0424
1 0.38955 22.852 40.2674
1 1.04025 9.75466 23.7524
1 38.047 1.20067 35.311
1 16.9349 0.544668 8.79522
1 24.4845 30.8332 34.7608
1 34.0017 47.3667 25.7502
1 16.5556 40.1245 3.35831
1 27.8452 6.56135 1.0448
1 29.5287 39.2353 11.6196
1 8.21748 13.5329 33.4726
1 11.946 36.4291 5.3724
1 48.7521 22.5933 5.5242
1 0.641454 40.5115 7.76785
1 47.0898 34.69 13.718
1 15.1009 4.88507 22.2346
1 43.0674 46.7264 26.7275
1 46.8161 7.61743 13.6821
1 38.269 45.8627 9.43542
1 15.931 28.2021 28.508
1 20.0839 8.42642 4.68198
1 25.0376 5.25983 8.08132
1 17.3751 25.0247 9.68853
1 2.2744 44.2559 9.9151
1 43.9254 40.337 20.3305
1 30.3381 24.7982 15.8437
1 40.2221 18.3359 27.9898
1 44.3837 19.7965 29.0352
1 19.7061 38.2369 41.2101
1 15.0719 13.2615 47.7951
1 2.33119 2.80496 2.9708
1 39.1644 6.40105 39.2919
1 20.1064 46.7571 13.7308
1 44.2198 3.11002 19.0697
1 37.0589 34.846 12.1945
1 17.6675 33.0405 29.4512
1 46.2896 28.1515 12.7192
1 41.7829 48.409 17.7395
1 29.3858 18.9849 39.2813
1 2.49584 12.7113 34.678
1 40.3824 39.3705 20.9509
1 7.88634 28.5929 40.3217
1 9.50494 27.9395 7.94123
1 25.7536 15.8172 44.5786
1 34.4686 10.0267 12.0527
1 5.17923 26.9462 35.3071
1 30.4962 41.8502 35.9104
1 39.771 40.5174 16.0039
1 44.6668 10.9793 9.45252
1 26.4295 36.0201 40.9303
1 0.742181 48.4368 38.9016
1 36.8751 8.87439 49.2163
1 34.1403 34.7402 40.1514
1 23.3121 42.8191 49.4606
1 23.3698 0.725345 31.7844
1 46.9046 1.31676 40.2528
1 27.6659 48.0223 29.3469
1 4.82852 10.2932 33.0915
1 35.8929 28.2143 18.6049
1 41.3008 26.1718 28.4372
1 44.588 22.3831 48.8536
1 8.78124 32.1313 14.2737
1 22.0052 32.5263 33.7573
1 32.1796 8.01412 17.9154
1 17.1845 4.20306 16.0703
1 39.2014 30.2224 16.8593
1 46.0158 12.6114 3.84431
1 2.55637 44.1575 16.9874
1 7.16709 37.3628 17.6913
1 25.3876 0.795578 40.9126
1 0.281234 1.32618 13.9146
1 25.9126 34.7428 45.0383
1 28.4624 44.5076 10.6414
1 44.6411 47.8332 48.7385
1 15.741 14.299 0.384056
1 26.5947 48.6557 20.0532
1 6.5377 26.2408 18.7988
1 10.8182 6.48132 6.99085
1 36.0478 6.10329 21.8342
1 36.6786 6.22625 6.42727
1 31.7435 30.5334 19.6669
1 35.7667 14.3276 35.1664
1 15.9181 21.0388 2.06835
1 42.0559 8.5581 4.85288
1 34.5919 14.4215 39.539
1 22.2525 44.1953 42.5634
1 43.4657 28.1461 16.9936
1 25.3442 38.9262 1.09788
1 9.89496 42.2634 4.97973
1 9.13658 42.9052 25.6855
1 46.1874 41.1617 7.58236
1 7.69269 35.0016 49.175
1 40.9338 18.272 23.5431
1 49.2822 44.5113 4.80125
1 40.0375 31.8143 48.9198
1 40.3872 49.6592 11.2225
1 23.7841 30.8772 47.9006
1 15.9596 28.9186 49.4443
1 21.9114 15.1567 23.2653
1 25.0035 7.40913 6.37822
1 4.68823 3.77844 11.1309
1 45.8002 30.6503 4.86727
1 5.81055 30.9695 5.34425
1 37.5467 22.9917 46.7979
1 19.9696 45.7652 35.1243
1 40.7876 21.6303 40.7148
1 41.6996 31.823 5.47261
1 48.3142 16.9566 20.5661
1 24.7886 44.9525 48.3611
1 23.7873 25.6998 23.6176
1 47.0788 31.9422 44.6726
1 48.8192 22.7509 34.1264
1 12.0884 41.1493 45.5538
1 17.0549 22.1625 16.5256
1 8.34094 6.51879 13.8413
1 8.86756 17.6543 29.382
1 42.5473 47.4709 0.693963
1 30.1946 17.6507 20.3727
1 10.4348 3.30994 10.0255
1 1.46218 49.7847 2.50431
1 8.7991 16.408 40.3907
1 6.45763 1.60305 39.5827
1 3.80893 18.2933 43.4577
1 20.561 37.2527 19.2353
1 29.7126 26.5332 41.1914
1 18.6228 35.801 9.53345
1 34.6981 24.1301 45.2269
1 41.7983 7.03701 39.5991
1 30.7672 13.1061 48.6807
1 24.4085 41.0833 9.51625
1 1.77342 36.2055 9.04304
1 48.2728 20.9917 3.27675
1 33.3461 36.9279 31.1719
1 30.4732 17.9994 5.06446
1 26.7154 22.7685 24.1315
1 7.83002 0.388842 8.97837
1 8.07892 35.3738 32.9532
1 2.94266 31.4748 28.16
1 21.1554 26.1398 12.519
1 41.1028 7.89489 29.8362
1 32.9109 9.86937 39.1819
1 11.2431 10.1767 1.21723
1 14.4059 32.2351 42.3377
1 49.6539 36.9878 37.9419
1 2.27088 46.2839 21.2379
1 39.675 27.0486 41.0681
1 47.7422 8.55155 25.0628
1 42.3215 21.2837 24.771
1 8.34443 0.146808 41.9128
1 12.2161 34.7156 0.742435
1 32.2701 34.6278 30.846
1 11.2959 9.9027 32.4735
1 35.6437 35.7176 1.90781
1 10.569 46.6178 3.68488
1 0.421209 19.4092 14.8757
1 5.93178 46.7269 11.1078
1 39.3734 15.7087 4.38525
1 48.7814 27.2081 20.0936
1 39.8061 46.924 31.2005
1 36.1102 29.5846 24.8439
1 39.7073 37.9709 42.7771
1 42.1514 4.11926 33.2102
1 27.0128 34.587 38.5785
1 7.16589 17.6289 42.2775
1 31.243 34.0248 39.8482
1 30.4434 49.7373 23.8436
1 21.7315 45.2742 12.2965
1 5.99697 2.19749 14.8212
1 33.281 18.5437 8.69668
1 3.95899 1.26997 43.558
1 15.3847 45.4855 17.1616
1 8.53021 46.1129 33.7175
1 17.2205 8.85008 34.6201
1 5.30875 0.631452 5.40983
1 0.221766 12.2798 4.67414
1 5.14313 0.650775 47.5968
1 30.4184 31.6128 15.8824
1 20.3654 12.351 41.6135
1 40.4235 29.3961 44.9854
1 3.65739 9.95444 39.9061
1 0.875116 22.3139 28.4529
1 33.2918 30.416 17.1675
1 49.4759 32.8561 44.901
1 19.4406 32.3311 40.7909
1 16.4948 3.87897 35.7309
1 4.64007 29.2482 36.57
1 2.29223 17.2793 11.1975
1 48.359 12.2292 2.64758
1 4.38403 24.6505 4.78347
1 35.019 27.1655 8.86633
1 29.5706 6.00709 40.3114
1 45.0838 39.7676 30.4302
1 26.3939 27.7704 22.0946
1 8.30173 13.4362 26.9365
1 37.7314 28.3252 36.7844
1 39.5264 39.9996 3.75986
1 11.2002 49.2453 12.0508
1 35.5588 31.3236 31.1701
1 27.3208 6.08532 9.3786
1 21.2141 46.1081 21.7027
1 37.984 20.432 45.8164
1 1.74494 29.2415 45.7826
1 47.1394 31.975 3.02048
1 13.3536 18.864 4.61294
1 35.5193 30.3955 47.4854
1 5.34102 25.0562 21.1891
1 37.5085 13.6774 31.5315
1 6.33249 15.5177 9.2801
1 2.46116 25.6095 7.92029
1 44.8761 34.424 22.7889
1 46.4216 15.9795 44.3965
1 26.7046 45.5004 39.6884
1 49.6979 31.4365 19.0313
1 15.3611 3.7054 6.73301
1 26.3482 33.7086 18.783
1 38.2668 46.97 38.1721
1 27.3873 45.8585 19.8337
1 6.08263 37.7185 40.7353
1 10.6275 7.30056 12.6654
1 43.7691 36.8487 27.4307
1 35.7733 37.9352 28.839
1 24.5883 30.0132 27.2424
1 29.1384 38.2781 8.90734
1 33.5878 43.0828 18.9282
1 9.99959 19.9241 22.5923
1 39.3941 26.0843 38.1982
1 9.08855 16.872 18.6007
1 6.23719 14.9528 23.7543
1 2.00068 33.7982 4.6907
1 11.1151 0.476871 38.1686
1 42.8825 17.2284 25.4455
1 13.1844 35.0262 24.153
1 3.17053 26.5977 42.275
1 2.64978 25.9098 35.3386
1 24.4827 25.013 46.8852
1 43.009 44.0533 47.0825
1 26.6669 41.0234 38.67
1 8.29832 15.5281 49.6076
1 45.104 12.7019 35.8875
1 35.5534 46.537 38.6953
1 35.9908 8.5627 9.23369
1 3.62814 40.2911 9.33427
1 0.936537 42.464 35.9214
1 9.08859 10.9433 13.8052
1 13.6589 37.5103 46.5441
1 7.8577 13.7416 13.487
1 7.6957 33.4103 9.95788
1 36.1803 22.0947 14.0845
1 22.3595 18.3034 5.1018
1 14.4979 23.7066 34.9302
1 32.8225 24.5667 46.9742
1 31.0136 49.7164 3.72832
1 7.41481 12.8589 48.5021
1 12.7195 2.17883 18.6579
1 22.0264 32.9495 16.4302
1 1.07335 25.4139 19.743
1 10.2646 7.85319 48.1993
1 20.3886 8.08184 12.1622
1 22.737 38.7099 19.8322
1 28.7858 24.7723 19.2107
1 37.5329 27.3858 29.8487
1 44.9206 49.7801 46.7736
1 20.0001 29.531 40.1226
1 27.8546 39.8455 47.0809
1 8.40855 19.9891 42.8762
1 15.3139 38.5982 27.932
1 6.64431 8.22224 45.0291
1 21.3335 17.247 14.7756
1 36.6073 47.2314 45.1173
1 7.61912 44.3388 45.7124
1 21.2011 33.7796 49.4361
1 22.9878 0.017296 23.7449
1 14.1741 43.859 11.5215
1 15.9621 42.8442 3.89558
1 22.4595 34.332 30.5983
1 11.7487 26.4518 18.4597
1 43.0112 42.0054 12.8567
1 2.45255 45.0006 44.5937
1 22.5558 24.9071 40.0152
1 19.461 24.7115 25.2132
1 9.36328 26.8465 2.52695
1 41.449 18.2569 20.6805
1 4.05852 8.77024 42.6952
1 46.206 33.7653 48.6093
1 7.88696 24.5545 17.1968
1 12.7879 8.20097 17.2784
1 34.5721 38.3715 15.1117
1 0.465321 29.529 35.0719
1 6.47458 11.3668 1.22357
1 5.59139 0.290541 12.7977
1 44.9973 35.6792 9.5674
1 20.7743 29.5227 6.84508
1 48.4668 30.3495 33.5418
1 37.1021 44.3519 14.7071
1 43.6686 11.8538 2.28732
1 15.1445 33.3686 46.6039
1 19.492 40.6019 2.87626
1 23.5761 40.7518 24.6822
1 21.1463 1.61817 26.5206
1 44.4439 40.2673 2.01008
1 32.2413 48.5278 35.9759
1 9.30073 4.03285 30.2322
1 11.7079 25.3194 3.46533
1 45.4279 35.6003 37.378
1 43.82 8.78464 47.3109
1 29.1789 9.18884 21.4133
1 20.007 31.0641 29.2474
1 18.8338 11.4439 17.5661
1 49.6141 29.4975 21.1491
1 7.29641 36.944 28.8838
1 19.8314 17.012 40.6601
1 43.3965 48.9102 41.8826
1 37.6521 16.7703 20.6777
1 27.5423 4.66451 25.4535
1 31.1803 12.9429 31.1907
1 40.485 34.2953 18.6404
1 24.1297 6.78105 37.6362
1 31.126 23.8612 35.7095
1 25.0325 42.8533 40.2043
1 30.9721 13.3858 45.8655
1 45.9605 38.0037 11.6799
1 40.8125 39.8423 25.8787
1 26.6823 14.2934 10.7332
1 29.7638 0.980887 16.732
1 39.709 12.4861 43.8746
1 20.8861 43.781 37.067
1 7.86913 21.601 22.8333
1 31.1706 19.5561 35.3308
1 12.0041 31.0113 21.6944
1 48.2902 37.8584 0.879097
1 10.8749 6.81244 19.0413
1 37.8827 20.3487 33.0384
1 19.4254 22.2594 17.9914
1 30.7848 14.1409 22.2393
1 37.1616 0.623642 8.67825
1 19.778 31.2019 33.0438
1 9.69228 22.0985 41.2065
1 23.2937 47.9705 21.8716
1 21.1867 24.8546 1.73714
1 10.3902 35.8388 21.0978
1 34.9943 29.2836 5.51459
1 25.9622 44.2241 17.3081
1 24.9748 12.3974 24.5818
1 38.2828 26.5736 20.3925
1 24.1914 18.3617 24.8223
1 17.5793 42.2583 19.2987
1 21.466 41.3172 45.228
1 15.8954 16.3982 20.714
1 45.9352 10.0284 36.0299
1 29.4253 34.7569 31.4334
1 36.401 22.2106 37.6284
1 5.4595 45.5806 20.2425
1 14.46 30.5686 28.4218
1 26.3787 0.828699 45.627
1 32.3786 7.61947 43.035
1 45.6114 4.11091 3.27285
1 48.8031 30.7676 8.15167
1 1.67377 34.5695 31.552
1 12.4147 36.2366 41.8316
1 9.47404 46.4398 36.8824
1 24.9511 13.8581 4.97315
1 4.90453 32.8152 10.0719
1 14.0301 4.43643 42.8934
1 40.3857 21.8173 37.648
1 8.44903 25.7948 45.7916
1 16.1778 40.9327 8.81325
1 41.898 28.0317 13.6083
1 47.5931 25.463 21.3893
1 46.5225 26.403 23.9281
1 44.5774 34.6514 0.654246
1 22.1619 6.5502 35.7852
1 28.5107 9.45403 1.24058
1 31.9604 18.7986 24.6668
1 47.1119 28.2305 4.92076
1 5.16749 18.1911 47.5519
1 3.25739 9.89134 7.5369
1 27.5048 1.48543 14.5991
1 23.1577 20.2541 39.8439
1 48.8501 9.32255 7.74058
1 31.2317 15.5707 3.88825
1 39.3098 34.938 40.1523
1 29.3845 25.3828 11.9031
1 39.1869 35.5563 25.8832
1 31.1632 5.03228 42.3753
1 45.7083 18.73 39.3799
1 19.2673 21.2296 20.4004
1 12.624 32.4154 46.9982
1 29.4868 30.8523 6.34308
1 0.584135 0.398362 49.4372
1 25.2511 1.69996 22.6477
1 11.8232 38.8204 23.8406
1 26.1493 24.026 20.4742
1 8.36633 31.1329 8.94197
1 18.7863 33.6924 37.2752
1 22.5088 29.7754 2.68708
1 4.81028 29.1027 23.7225
1 18.6175 46.9717 22.4291
1 9.93244 10.4758 16.1921
1 12.0911 32.4347 6.50346
1 15.1329 22.4794 39.1247
1 39.9983 43.3005 28.3264
1 1.626 16.9058 48.9029
1 39.6399 43.1832 19.8062
1 15.4862 21.3538 25.5349
1 48.9145 13.7948 27.922
1 34.4161 37.0734 39.0271
1 9.254 33.9536 12.1379
1 30.6496 44.7482 5.83147
1 46.8701 38.2589 5.77198
1 5.36464 44.4046 37.5652
1 38.4944 38.234 22.2408
1 33.1439 42.47 4.28832
1 16.3104 15.5895 46.2435
1 7.89106 29.6348 6.20095
1 42.91 38.0598 13.8949
1 1.81727 47.7704 45.5708
1 49.5082 45.3172 32.2983
1 38.4627 42.0591 45.6575
1 15.3856 9.56224 4.69966
1 2.17817 22.8288 37.4122
1 28.9789 47.0401 40.1167
1 23.4388 35.0684 18.0749
1 33.1417 48.8622 31.3358
1 48.5893 25.9086 30.8448
1 44.142 21.483 42.5779
1 46.0887 38.0708 48.5626
1 47.195 17.0007 2.64628
1 35.4735 7.57235 12.3841
1 36.5184 42.2189 37.0554
1 27.661 34.7197 16.3582
1 43.4642 43.5051 29.2284
1 25.7377 29.9763 12.8656
1 25.1139 40.3916 27.082
1 40.9118 5.45466 29.0615
1 37.1073 19.3849 25.1624
1 8.18974 42.1013 23.1117
1 24.2818 48.7196 26.0329
1 20.9747 0.0187738 18.2058
1 19.8042 27.6899 26.0703
1 46.8463 0.123443 37.5224
1 7.11024 32.9927 37.0765
1 3.11006 46.1063 29.284
1 28.9897 13.2322 28.756
1 48.4939 4.73571 5.18536
1 1.06891 1.54566 9.84661
1 13.2307 29.8967 45.8082
1 49.542 11.8211 22.6206
1 12.7498 18.7235 20.8996
1 49.5172 13.7821 6.98298
1 27.587 41.9072 17.3254
1 0.818837 27.1952 33.9112
1 7.80684 49.234 11.8371
1 42.1776 33.5045 37.4345
1 19.8179 8.88093 30.237
1 40.8167 29.793 8.74229
1 38.3023 30.3739 40.8446
1 35.7266 26.3118 36.8902
1 41.3385 43.1534 3.21711
1 9.07042 12.454 35.9253
1 48.4389 39.1995 8.4029
1 46.6839 31.4475 0.482375
1 28.6401 19.4789 45.6716
1 43.1305 18.3989 6.5344
1 10.638 6.08786 40.471
1 16.5672 45.404 39.7178
1 42.3404 48.1158 38.1896
1 24.3158 35.7302 26.0861
1 10.9395 40.6667 41.4854
1 22.922 21.2631 12.7702
1 21.3404 15.3466 4.24581
1 1.4762 24.9841 23.6682
1 36.0973 45.2778 40.9347
1 12.4646 9.84714 3.71251
1 23.3441 39.6331 14.0857
1 42.7192 48.5013 13.7147
1 8.96741 8.78675 20.2646
1 36.7888 4.7914 8.74154
1 21.3911 38.5086 45.9907
1 17.0486 6.65319 23.4212