4096
 Atoms. Timestep: 10680
1 48.3975 37.395 16.0373
1 22.8194 21.7478 25.4041
1 29.5862 8.75093 21.6128
1 24.3212 46.4335 4.76425
1 45.028 14.6586 23.8403
1 16.8851 41.024 23.6518
1 34.9961 41.0859 10.9233
1 39.0018 2.30113 13.9299
1 3.86238 49.7561 45.1881
1 34.4987 46.1006 21.9886
1 21.9525 9.42278 7.0576
1 39.5725 44.3812 31.8829
1 21.7622 43.7339 6.73001
1 2.38832 18.6691 18.1249
1 22.0465 30.2448 4.67755
1 16.0036 2.07499 20.4258
1 44.19 13.9297 37.4999
1 46.4582 23.7405 4.6082
1 19.0102 12.5009 23.802
1 5.27723 22.1885 10.0331
1 34.7212 15.5053 11.6806
1 9.64849 22.8797 16.1906
1 3.03472 35.9155 39.1696
1 1.82741 14.7416 23.3568
1 17.1208 7.07204 44.9715
1 1.7576 39.1358 19.0434
1 6.82498 5.87455 19.0607
1 10.1015 12.1969 23.9383
1 4.98419 13.3527 41.2041
1 3.66628 48.759 48.7639
1 33.3696 41.1611 37.9832
1 10.3348 2.75806 24.8272
1 36.3483 2.36067 3.60494
1 8.80242 24.6112 21.3321
1 28.6876 44.9846 48.7985
1 0.0129018 37.7378 22.6087
1 8.62153 15.652 41.6016
1 17.346 39.9496 45.1338
1 45.758 31.0244 11.2352
1 37.8838 13.9867 8.92528
1 28.7746 34.4263 26.6055
1 33.292 25.3416 19.4965
1 47.8193 39.8873 22.1648
1 40.4408 39.631 44.2542
1 3.33154 2.56175 19.0824
1 15.6816 26.7165 35.6678
1 35.0428 36.4715 28.0235
1 4.30085 24.7083 11.8939
1 6.16604 0.425819 27.3662
1 18.4086 42.0186 4.2947
1 4.05131 3.28107 29.1754
1 25.2394 19.6797 1.53279
1 18.3544 14.1787 36.9509
1 6.49712 26.3227 43.8929
1 39.5797 13.5284 0.912059
1 33.3414 25.9137 29.4894
1 33.093 17.1859 15.8044
1 40.6005 43.8897 39.148
1 28.9886 8.22825 45.6988
1 21.0233 27.725 2.28154
1 35.8963 32.5082 25.0439
1 9.89348 39.7527 35.1738
1 49.3607 49.4956 3.34447
1 13.5517 11.3485 43.2132
1 3.48972 47.5991 5.20398
1 12.0892 44.3648 13.0188
1 37.1329 7.0298 39.6087
1 38.0657 39.5268 23.5111
1 24.3355 24.8173 45.6814
1 37.3948 16.3263 39.8813
1 30.8288 46.2742 26.0523
1 26.6798 21.1242 19.2344
1 16.2159 0.177808 47.5173
1 28.8118 43.3991 5.3303
1 39.6713 47.8345 18.1658
1 9.65731 45.3655 29.0243
1 40.4148 15.9563 4.354
1 11.307 17.1549 22.4729
1 27.3408 14.0421 25.369
1 42.94 31.1948 3.99764
1 30.0836 10.6706 41.577
1 41.3843 46.0479 23.1518
1 20.0355 48.7647 22.7793
1 10.0613 47.0631 9.41975
1 32.5211 12.7636 20.9942
1 27.4685 0.451706 47.8488
1 16.5719 38.12 14.951
1 9.99448 34.4313 3.83529
1 6.47905 11.0393 14.4693
1 28.766 36.0275 36.2081
1 18.806 1.37062 21.4691
1 4.65855 23.9151 21.1583
1 37.1748 42.543 2.26441
1 29.976 7.95161 15.6961
1 13.6097 13.9748 29.9785
1 0.320754 13.396 19.7576
1 17.3537 0.53652 38.4873
1 11.6686 0.337749 49.5333
1 25.0557 15.4784 46.7526
1 7.3306 35.4389 40.7543
1 27.7557 29.4486 26.8018
1 27.6899 14.1969 1.921
1 18.2872 29.4738 14.9098
1 11.7508 27.0974 31.8091
1 9.51898 47.3763 16.553
1 35.4223 30.1391 20.3284
1 43.6285 22.7529 8.56316
1 7.21242 7.70811 10.3424
1 39.4829 15.2633 41.4312
1 7.95497 45.9911 45.6131
1 28.2497 32.2918 24.8482
1 7.55073 47.2952 20.154
1 26.6731 31.3937 32.3611
1 1.9729 36.2622 43.8618
1 31.7102 29.4307 5.25533
1 28.4222 32.662 4.33284
1 20.3079 25.3906 38.7038
1 46.1233 10.5227 40.2604
1 45.0299 28.9146 28.5897
1 20.8174 0.966892 16.4912
1 10.4485 18.7106 44.5593
1 41.9567 1.53062 24.5812
1 41.0415 5.97536 38.7921
1 15.4963 48.6944 5.26796
1 17.5308 2.53731 36.6275
1 41.9849 23.4293 22.1674
1 39.4781 34.4797 18.5992
1 9.72816 21.0903 8.69267
1 30.1024 3.6427 36.6905
1 40.1889 3.27297 4.87
1 12.3912 26.8804 20.4464
1 38.9927 32.688 16.5463
1 15.641 1.80946 3.86258
1 21.1448 31.6096 8.74594
1 46.7176 21.35 31.0876
1 5.84143 31.7975 9.93089
1 49.2684 16.6333 3.44507
1 9.83583 43.941 26.5244
1 40.1885 1.17077 36.1173
1 1.40314 39.5524 24.4733
1 24.8365 22.244 45.3692
1 30.128 41.1331 17.2697
1 26.6071 19.6686 40.5126
1 36.6329 49.7549 10.9788
1 3.90536 31.2935 21.2255
1 0.389225 42.4163 21.0468
1 1.62004 15.5517 1.57759
1 43.5767 40.619 39.4425
1 19.3058 15.7576 1.66577
1 42.231 22.8682 3.17856
1 7.51309 10.4392 6.39814
1 40.2127 5.55185 19.9327
1 11.2823 17.98 20.1006
1 14.2893 2.81092 40.2945
1 5.23423 37.3055 22.1732
1 29.8266 44.6796 20.0984
1 39.9747 15.9176 32.4833
1 25.8985 3.18815 24.1601
1 34.0819 1.19887 4.7024
1 35.7939 15.9222 3.42226
1 27.2485 11.0556 48.6766
1 13.4239 3.63493 17.3741
1 2.81104 17.8215 34.1318
1 24.1728 10.1837 5.88803
1 40.1286 6.80022 2.56463
1 3.51764 45.2436 14.2234
1 30.8077 8.59411 6.87215
1 31.1202 37.2284 30.222
1 31.0644 29.0072 8.75098
1 18.5156 16.3464 48.443
1 29.9531 16.7739 25.8404
1 27.9886 39.8695 41.7385
1 2.00162 47.9096 26.6164
1 27.3342 30.1716 38.2432
1 23.283 35.7562 4.40759
1 27.1072 35.0808 0.621925
1 10.8289 4.26606 1.78383
1 20.6097 2.19067 29.7723
1 17.3291 31.6572 35.0185
1 8.42189 32.7406 37.1589
1 2.38096 21.3677 27.518
1 14.1859 10.7601 11.1849
1 29.5691 38.5688 20.2363
1 22.1715 19.0974 48.0243
1 20.3482 1.75727 36.2713
1 25.7936 29.0585 29.1642
1 24.0083 16.0342 36.3637
1 6.95378 32.0306 17.6368
1 25.7331 46.0941 33.4433
1 15.4332 4.76742 10.9726
1 48.1913 33.0095 38.9152
1 13.4598 32.143 36.1127
1 27.3972 21.7392 39.1968
1 8.38237 44.8652 9.05459
1 2.96937 6.24075 24.8229
1 30.0227 6.47007 43.8389
1 3.48562 4.93245 6.02705
1 35.3176 30.8716 10.521
1 25.1294 21.1228 26.4029
1 3.739 14.8052 25.3162
1 22.3033 14.7868 18.6772
1 9.05737 11.3294 10.458
1 46.9588 22.1265 12.535
1 8.2463 2.96813 26.6612
1 49.2477 7.85178 49.5384
1 18.1729 1.08534 1.12592
1 15.7133 14.6065 7.66849
1 38.6373 47.599 12.4182
1 28.1779 5.06254 14.8288
1 18.4384 18.7497 34.2614
1 44.8538 42.1818 29.5116
1 40.1067 37.6076 14.943
1 37.1739 19.0061 40.8371
1 2.51517 49.3029 41.7827
1 17.2605 35.7142 16.5443
1 4.12367 7.9383 22.8748
1 16.936 35.171 23.0652
1 22.8168 41.8185 23.7808
1 6.18526 7.52377 48.5082
1 47.9592 9.28223 2.69374
1 13.522 37.5004 28.5945
1 10.2175 42.8615 2.38185
1 31.2375 10.5271 3.43763
1 18.1879 7.49975 4.97337
1 33.6292 28.5218 18.7408
1 10.7299 23.9781 12.6696
1 32.1028 21.3041 34.1196
1 11.6097 7.03977 19.5312
1 21.1571 4.6276 2.85972
1 21.3464 31.1991 2.1813
1 23.6919 23.7658 10.7196
1 33.9547 32.4597 12.414
1 18.3888 39.3781 16.8643
1 21.6817 1.36694 23.546
1 31.2522 13.7646 30.582
1 24.8127 34.213 24.549
1 9.6783 17.1153 37.0877
1 12.8941 0.823488 10.615
1 48.5344 25.4823 5.17128
1 43.5139 32.2403 46.1923
1 38.9334 17.4957 13.3611
1 14.2074 47.3616 40.0035
1 19.3267 16.9134 37.5756
1 2.5451 17.1234 11.9061
1 8.97149 46.258 48.1777
1 9.89847 5.01248 28.0233
1 16.8979 32.1045 21.9027
1 15.986 32.5014 44.2225
1 36.8311 48.2362 3.44763
1 22.5966 4.01434 30.5777
1 45.2558 38.3905 47.7869
1 15.9933 28.2763 6.86174
1 39.7893 42.3443 19.7429
1 34.9823 15.1202 40.5007
1 11.9754 18.8192 14.8178
1 11.2654 43.4828 47.7903
1 38.6458 12.6411 20.6164
1 2.20804 6.68369 18.5522
1 35.3153 33.7689 47.1907
1 49.409 48.6862 37.7857
1 31.8454 10.3628 22.1514
1 14.3442 18.3871 5.73661
1 36.6788 9.48329 30.3441
1 46.5877 14.7247 40.2539
1 3.81321 0.785305 6.80693
1 11.0899 47.525 18.8369
1 23.2457 19.3951 15.3628
1 18.0498 36.3884 42.0473
1 18.3314 1.84053 3.39324
1 45.5763 25.5844 39.2328
1 13.8847 42.5555 14.2953
1 31.7778 23.8876 16.8933
1 3.07701 42.6937 10.6693
1 6.67763 7.86285 13.586
1 20.3554 30.0706 6.86642
1 8.96683 28.4524 8.01573
1 0.298083 43.0783 34.7025
1 32.5233 17.6201 36.0903
1 30.4913 45.0404 43.6507
1 4.49241 45.0668 43.3922
1 28.6426 5.42572 5.85674
1 21.4444 17.3428 15.0854
1 42.9305 9.48682 37.4962
1 20.9253 16.7439 22.5331
1 20.9023 48.3191 19.9274
1 5.44827 16.4636 11.866
1 7.56106 2.88426 49.4267
1 47.1834 43.892 28.9768
1 0.251024 19.6824 23.8734
1 33.9776 27.8948 26.0664
1 47.9061 8.77731 35.9728
1 1.46292 29.1798 0.675789
1 41.0851 21.0571 34.4163
1 7.56193 40.8277 41.3045
1 37.7765 12.2084 35.9778
1 40.8424 26.0991 49.4333
1 45.962 7.84391 11.4652
1 26.6411 23.2475 43.3213
1 34.6931 25.2078 13.4067
1 26.0957 14.0362 32.0139
1 8.30284 40.6166 8.14637
1 13.2134 44.5544 10.5689
1 26.0136 41.1759 17.8661
1 20.5116 6.65418 22.6888
1 46.1999 49.4809 45.9742
1 44.552 13.5367 12.0423
1 9.816 14.6494 9.58508
1 7.20479 1.17267 23.2137
1 2.44994 7.15393 15.9809
1 16.9532 21.2835 39.9505
1 2.61888 33.4868 28.792
1 43.4485 10.8527 0.658976
1 6.80312 43.8551 36.4237
1 38.1387 47.3717 23.5352
1 40.1738 29.685 23.6767
1 44.6799 28.2081 7.02441
1 27.9243 16.6251 3.61842
1 7.87454 18.0291 11.4447
1 44.8329 11.3521 36.2749
1 23.2645 0.477471 32.6066
1 4.70361 14.6912 15.109
1 29.3773 24.2544 5.11656
1 31.7348 29.648 40.0219
1 4.10353 43.8977 26.1538
1 14.5069 10.1869 33.3078
1 2.07355 22.5832 34.2991
1 1.86823 36.4812 35.0642
1 4.01771 15.8376 37.7898
1 45.6036 4.32237 10.9617
1 47.4363 3.8339 47.4381
1 33.3361 33.878 20.0745
1 32.0833 15.8552 12.4337
1 12.3535 40.7453 19.7204
1 29.714 44.5296 33.546
1 38.8873 20.997 11.5377
1 39.6307 41.4671 13.4507
1 39.4761 35.9097 36.9186
1 44.883 44.6602 45.1103
1 3.7997 41.2238 31.8912
1 2.76765 47.0186 35.5852
1 12.0493 48.5225 27.1651
1 41.4045 26.9434 27.15
1 45.7686 28.826 47.0238
1 48.5399 4.56527 30.6335
1 41.2118 21.0971 38.203
1 4.4937 18.5738 2.21419
1 5.60029 11.0458 25.3978
1 48.64 12.2607 28.7362
1 32.8202 30.4512 34.9342
1 23.9859 22.7679 16.9458
1 24.429 7.01958 15.8286
1 37.7461 18.7618 11.0249
1 2.70091 36.4288 11.4709
1 21.693 16.2901 38.4777
1 0.904374 31.9597 38.991
1 39.5614 30.0845 34.0141
1 46.8602 15.3277 32.7181
1 9.48987 6.21881 17.1366
1 4.12787 47.2715 16.8847
1 23.2869 6.27211 21.6926
1 17.3903 21.2042 13.1016
1 1.31761 39.8675 31.6945
1 25.8669 13.4594 45.0861
1 5.74134 14.2679 46.037
1 45.8663 25.1904 22.8189
1 19.324 28.1645 36.4314
1 19.7588 7.51725 14.2263
1 35.6751 10.3598 15.262
1 15.476 9.08638 24.4659
1 45.9874 21.9965 19.6712
1 3.2056 48.0798 12.699
1 40.4522 12.8883 41.9767
1 21.5936 45.5316 18.8966
1 33.3008 8.25611 44.6196
1 42.3741 35.8162 43.4169
1 45.3624 29.6401 23.4236
1 15.3666 37.9818 26.1759
1 39.1745 42.2841 41.6092
1 11.6695 10.7816 9.60926
1 11.4297 8.58285 35.8791
1 7.33148 21.6274 24.2822
1 2.13064 43.5802 43.4452
1 0.418684 40.4909 34.1582
1 4.79233 3.23162 9.86049
1 33.1541 44.0985 47.356
1 11.1424 11.7534 44.3727
1 13.9686 23.2118 0.836579
1 36.2663 19.0915 32.1865
1 12.1382 10.1016 32.2519
1 30.819 1.20511 14.8347
1 10.3894 5.48017 42.7445
1 8.42051 12.362 19.1143
1 0.327674 33.2445 24.4386
1 48.6959 30.1306 27.2123
1 44.3916 47.2435 46.0822
1 25.0491 48.8949 36.732
1 15.6157 40.0536 32.1769
1 7.80023 26.1214 3.04753
1 43.1645 20.6378 1.913
1 38.9437 14.4081 36.3764
1 39.0034 40.8694 47.7166
1 8.37134 9.19764 22.4251
1 29.4456 43.7534 30.6937
1 12.9841 31.0552 1.84615
1 4.06173 44.6151 2.45101
1 9.52483 22.8103 39.1029
1 30.3312 12.3175 33.2095
1 33.2369 44.6001 3.73622
1 21.9358 13.3948 7.36013
1 16.2585 18.4236 38.3818
1 19.106 30.9209 10.8765
1 48.0688 47.8736 44.0938
1 19.2232 44.1643 7.74036
1 12.5107 40.8871 34.6846
1 39.7916 46.1577 26.8328
1 14.9253 3.27703 31.661
1 24.207 34.7165 21.3199
1 12.0227 23.4786 39.7169
1 9.90412 40.4263 1.57304
1 3.25175 10.9224 46.5712
1 12.7931 43.0068 25.12
1 41.7475 11.5826 32.5059
1 16.2509 12.9279 29.9283
1 8.53588 0.375061 29.0063
1 13.4182 18.6104 10.0813
1 33.8305 4.67196 5.69433
1 4.14249 10.6219 34.7846
1 9.8148 27.7754 29.7928
1 5.58236 38.2557 25.7055
1 4.17295 20.2456 30.1195
1 25.6082 6.83634 24.6283
1 45.0509 5.33181 26.0478
1 24.4959 40.2099 32.6896
1 45.4051 36.7357 9.00236
1 40.4533 13.7362 10.0268
1 11.5607 47.9289 3.09403
1 12.0876 24.4523 15.4098
1 27.538 37.6842 21.9239
1 30.7412 9.91495 19.0137
1 9.73854 27.2758 21.0148
1 49.4225 43.8035 30.5883
1 35.32 1.66948 9.4747
1 47.1272 6.66455 42.3923
1 17.1461 3.83577 45.3288
1 49.1323 43.5217 37.2686
1 29.874 21.6494 26.5777
1 12.765 33.1886 23.3303
1 5.37997 36.3561 4.35706
1 19.1565 6.86518 48.7344
1 27.5927 27.7199 17.18
1 42.768 6.01271 16.6062
1 20.3431 40.0504 39.8305
1 8.23405 29.3403 31.4403
1 14.8654 7.9817 43.8757
1 8.6056 37.4606 26.9745
1 32.3982 14.3096 23.0799
1 22.7895 30.6865 20.5361
1 20.8022 4.83977 18.2276
1 4.28104 9.08674 8.37501
1 46.3716 28.7392 19.8336
1 46.8108 40.257 30.4315
1 0.114101 23.8757 33.1207
1 5.10455 11.6867 1.05843
1 9.66462 4.56385 49.1338
1 9.56636 16.0855 19.3504
1 27.5266 5.26441 23.5784
1 25.1207 13.5431 19.1221
1 0.88604 1.21408 5.47494
1 21.7227 46.1595 11.4498
1 44.04 31.3762 6.32051
1 35.003 34.6045 31.4829
1 34.5897 31.4863 45.457
1 7.93036 30.6601 3.35928
1 32.8826 22.0962 3.60534
1 24.4789 9.533 27.3043
1 38.9592 11.3767 47.9247
1 47.9675 32.5634 17.4336
1 34.7883 5.85654 36.8628
1 0.966699 38.5157 7.63647
1 1.18068 8.53986 44.0183
1 42.663 7.74002 45.3951
1 43.5136 23.4157 19.6497
1 35.2971 0.335159 21.2361
1 1.90427 2.42627 42.2201
1 2.67541 9.65279 40.0446
1 19.919 29.3807 46.1596
1 42.3999 39.0992 35.495
1 12.8622 2.1036 47.5194
1 32.1143 47.7994 18.122
1 44.4797 35.8099 33.7882
1 5.45763 36.6699 16.8273
1 12.3529 18.226 37.0821
1 45.1059 38.9375 17.9491
1 31.7187 0.0647052 0.964443
1 14.5589 24.3874 45.7797
1 14.5803 27.1023 31.3356
1 13.8369 0.302903 34.1062
1 3.34223 43.3792 38.9903
1 49.224 16.6322 35.5643
1 38.1454 44.9704 44.8541
1 25.5951 45.3225 30.9128
1 7.73227 40.6306 17.8745
1 10.1245 18.4179 7.71162
1 17.1519 42.0845 36.9638
1 21.7933 31.7846 17.6781
1 2.47835 32.1978 47.1401
1 4.73463 38.7717 47.9442
1 48.9326 3.94584 1.46808
1 16.9183 2.77441 47.7489
1 12.0018 35.181 27.5878
1 12.905 45.3883 17.4723
1 26.4428 3.39322 38.1249
1 47.6991 9.81334 48.806
1 8.13282 41.1523 33.4812
1 38.0718 26.098 20.3815
1 0.735154 19.03 44.1598
1 11.3447 24.5849 48.4117
1 17.8221 46.1993 35.8487
1 37.3509 2.79588 41.8659
1 2.5627 3.44734 3.54432
1 35.8136 22.921 44.7547
1 28.0323 12.3774 22.0763
1 47.6858 32.1061 20.6235
1 17.6541 11.8409 48.2335
1 4.58481 11.9273 32.0828
1 37.604 42.6351 49.3465
1 23.8811 43.4709 8.44086
1 45.2638 20.9278 22.3638
1 42.5431 18.7985 35.4871
1 42.0588 13.7161 5.33155
1 34.2581 43.4436 19.31
1 23.3308 41.2496 3.42202
1 23.1174 35.8907 26.7199
1 27.0082 6.3497 46.6037
1 38.7639 25.7469 11.3748
1 42.4253 0.888517 12.8916
1 33.9566 1.96037 38.6446
1 43.3468 37.8284 41.7725
1 37.1921 14.483 16.2134
1 9.70575 0.45626 23.9455
1 39.727 32.4333 44.9044
1 47.3466 2.5445 36.6589
1 2.20834 40.4662 21.5761
1 33.2006 8.82132 0.106152
1 14.4064 9.74316 27.7532
1 17.1008 32.6154 30.9864
1 37.5843 27.2411 5.62723
1 6.80868 12.1523 29.9419
1 10.2744 11.766 27.8615
1 7.08533 44.0553 23.0411
1 38.6739 23.1961 32.908
1 28.1107 39.9738 30.1554
1 6.17326 24.2052 49.5917
1 8.12329 28.8501 13.9014
1 17.7853 2.48025 24.1732
1 5.93991 45.0191 32.0517
1 35.658 1.97635 16.958
1 42.7739 11.3922 12.4125
1 1.14764 36.0393 4.71438
1 4.34732 2.24358 43.6034
1 41.3123 48.8876 4.09869
1 2.92807 15.4763 4.08137
1 39.016 25.1803 45.6529
1 30.3363 20.1454 28.832
1 38.7464 30.6553 11.9201
1 4.20061 31.0696 48.6532
1 38.4057 29.3035 9.44343
1 18.0118 0.356061 45.2328
1 10.8506 3.10935 20.5038
1 30.1451 14.8444 28.1579
1 42.5904 13.1141 26.4033
1 20.7143 27.5404 41.0493
1 21.2334 49.1226 37.4152
1 9.25703 30.7107 24.5514
1 48.1345 46.558 29.4316
1 29.1576 33.4993 13.2197
1 8.05662 48.7163 40.4081
1 7.78017 33.6528 2.44726
1 10.8798 5.84375 45.4157
1 39.4676 2.75461 38.5289
1 42.5483 41.0282 45.2718
1 37.8468 5.68188 47.5265
1 20.6063 15.9268 44.5685
1 45.5015 38.4353 28.4835
1 45.5411 32.8536 14.3609
1 32.8347 3.88653 9.86789
1 5.55921 39.5796 39.9765
1 24.0179 45.3448 37.2998
1 36.9666 17.1551 15.2221
1 20.7797 46.5329 42.0953
1 9.32615 27.3523 10.8651
1 5.52757 3.12697 47.6442
1 14.5758 26.7943 43.8894
1 34.6743 34.2192 40.3579
1 32.9279 23.2648 14.4654
1 17.2545 43.3177 10.7646
1 4.25398 19.1256 23.1619
1 1.16071 48.1073 33.8018
1 22.0689 35.7932 22.8302
1 48.4835 14.2716 13.5077
1 42.0464 25.7861 18.6459
1 19.8494 26.6565 26.9216
1 13.2161 15.6179 14.6736
1 28.6842 47.9716 7.15107
1 15.6244 46.0184 4.14849
1 38.8186 39.7624 10.5907
1 17.0428 25.3102 20.2591
1 40.0053 8.86821 25.1584
1 16.8948 5.91013 6.77652
1 41.8701 31.848 30.9535
1 14.3427 16.8338 39.9785
1 25.9057 41.6982 34.6425
1 6.04366 15.0762 24.4371
1 44.9705 7.80912 47.1569
1 13.419 37.2146 42.6997
1 20.0498 40.4255 8.07802
1 33.5564 12.6888 7.24018
1 3.36876 9.37368 42.5475
1 14.1071 46.2103 27.9109
1 15.2157 27.9998 27.9719
1 17.2454 2.62838 10.8872
1 24.2955 16.7472 8.00561
1 13.7121 43.3484 43.6799
1 29.6388 48.8172 18.8986
1 8.17338 38.1795 29.5866
1 48.5549 0.312576 22.5595
1 22.6432 32.0581 49.3513
1 2.75808 6.37625 46.5527
1 42.0544 23.2685 48.2364
1 42.3511 49.1213 20.7286
1 5.73289 42.1751 24.9034
1 16.0471 5.95334 26.1262
1 11.5409 18.7443 1.76024
1 13.9706 1.99216 24.3223
1 48.7208 10.1986 44.5757
1 47.8882 1.38077 41.3363
1 29.47 25.1782 15.4532
1 48.0186 0.655755 32.0599
1 45.9943 49.2035 21.931
1 8.34352 28.4118 49.3986
1 0.791455 43.9087 46.0524
1 2.28947 17.1779 22.2009
1 38.9692 23.6199 38.5028
1 14.5922 48.3033 25.363
1 7.5196 1.77901 18.0914
1 0.238496 0.661957 9.5991
1 23.4767 28.9075 35.7125
1 7.02314 48.6588 25.2759
1 47.1082 12.9408 11.3731
1 25.197 41.6562 48.9321
1 40.1067 23.6077 1.89972
1 13.7285 41.4888 3.12103
1 48.654 18.9149 17.5761
1 24.7525 11.1461 47.6602
1 36.5382 20.4351 38.4263
1 36.7621 8.87021 17.4226
1 6.29938 36.6015 36.7194
1 39.8366 48.2917 21.009
1 2.09265 11.0067 30.9687
1 21.8132 33.4503 26.1931
1 30.881 36.5366 21.6701
1 18.2488 19.0824 11.3951
1 7.59802 8.45299 45.13
1 47.7209 11.4965 1.19793
1 7.68923 21.707 30.3838
1 30.9085 45.8876 41.0713
1 26.7253 32.7497 29.2979
1 15.9131 49.4339 0.650785
1 19.0728 6.42638 35.9235
1 1.20031 44.681 38.9555
1 38.9855 9.61272 35.6373
1 18.5494 35.3461 45.8669
1 13.988 21.3754 6.40469
1 20.1117 9.77724 39.882
1 17.0789 1.33866 8.56591
1 37.9562 26.6796 35.5223
1 18.243 10.2098 33.1872
1 26.7306 43.9864 21.9867
1 24.5478 30.8647 30.348
1 6.64548 35.8406 24.1865
1 25.4277 16.8617 14.4597
1 9.71997 11.3846 0.83351
1 45.2902 45.2417 17.055
1 44.864 26.7002 9.76807
1 8.47285 25.6663 30.8757
1 2.35699 35.7042 1.13077
1 48.881 24.3237 37.7509
1 47.9465 0.994693 18.4641
1 27.2772 40.8735 47.5948
1 20.2089 42.5966 10.162
1 25.494 36.0247 30.275
1 33.3226 44.4383 30.6592
1 21.1581 37.2111 48.8703
1 27.0078 17.7993 49.6564
1 35.762 34.5538 11.6864
1 2.43662 8.80682 34.9811
1 6.97516 48.3363 44.6572
1 2.5685 12.6986 7.76336
1 19.0161 30.8773 26.4617
1 5.05799 32.332 6.38338
1 8.31279 8.47138 30.1712
1 0.79225 42.398 24.3295
1 46.4583 12.553 5.92405
1 44.0712 31.2218 18.9591
1 16.5295 23.8854 38.6999
1 18.0053 20.6431 0.360274
1 31.5642 9.06775 10.7526
1 21.9748 11.1996 8.99913
1 9.21902 49.6418 8.17289
1 46.5721 40.9988 16.7405
1 18.1509 26.9713 9.59478
1 44.7563 19.8758 15.6647
1 41.0242 29.4482 29.9544
1 25.4602 45.4448 43.6645
1 19.2723 14.4673 6.28904
1 15.5492 7.63654 22.0511
1 41.4097 48.5147 37.3731
1 31.6525 4.01591 24.4812
1 44.6326 15.0444 19.3119
1 36.2309 37.0993 15.7717
1 22.6557 17.1502 32.1736
1 45.7486 25.115 7.50246
1 43.6655 11.452 22.8582
1 34.0361 18.2129 49.1536
1 48.9944 19.2202 34.5042
1 3.87097 0.972119 15.3773
1 7.59093 26.3014 41.3859
1 15.0949 35.98 12.1699
1 15.4921 13.3452 11.5527
1 24.8712 14.8015 24.3642
1 3.83797 25.1146 37.3116
1 24.3878 42.3842 31.4366
1 45.3537 41.0964 14.3147
1 47.8193 11.8832 21.9001
1 26.1738 37.8223 42.9263
1 9.86266 3.00459 39.5871
1 29.8784 34.6275 46.4624
1 1.92565 24.4597 47.0482
1 33.3175 42.6842 5.59402
1 22.1616 1.36499 20.8131
1 48.3756 9.04363 41.2359
1 32.5173 39.5743 30.6174
1 5.22794 16.8254 43.8894
1 19.7308 23.9809 26.6339
1 41.9374 31.0151 44.253
1 34.5236 30.9396 1.66316
1 20.7512 25.7843 14.6471
1 19.6633 21.1496 28.2802
1 34.5501 14.2328 1.8564
1 16.052 46.6448 31.9209
1 39.9929 29.4083 19.2946
1 4.19879 17.8195 4.9673
1 6.71879 48.5126 7.63841
1 3.17234 32.1089 18.6292
1 39.6055 8.40383 39.9348
1 21.9164 7.95332 19.7816
1 22.1645 27.1926 42.9901
1 16.4415 13.6182 5.12584
1 26.0678 47.359 0.838222
1 6.0907 19.3215 13.4207
1 30.3626 6.6894 20.1916
1 27.354 27.7009 12.1537
1 16.9028 10.2884 18.4977
1 41.65 15.9938 30.2005
1 44.9198 6.68666 6.81291
1 26.4264 33.6655 47.467
1 43.3467 14.6255 21.3974
1 5.2273 27.1524 2.726
1 40.3252 11.1661 11.2541
1 24.5691 10.8512 24.8039
1 18.7434 8.6429 43.3003
1 49.6159 23.9036 7.09273
1 28.5856 45.6936 3.52262
1 20.6139 46.6422 46.8911
1 6.83909 42.4365 19.5741
1 31.5057 32.4046 3.04271
1 6.44713 34.9227 49.4927
1 46.7042 45.6126 21.676
1 11.6876 35.4765 11.2849
1 25.1375 32.5696 42.3393
1 42.8781 44.4016 11.4688
1 12.5433 27.9627 9.70951
1 5.16829 29.7473 3.43089
1 21.6296 21.5931 15.6477
1 40.0146 8.8634 9.82675
1 5.85852 46.7937 22.1876
1 36.7906 23.2285 14.6495
1 8.31378 16.782 9.0446
1 1.16747 33.1863 4.00674
1 28.8253 45.5289 27.1851
1 36.2786 24.0588 41.7284
1 41.9746 47.1233 34.7867
1 43.0181 19.1344 21.2901
1 13.4497 3.172 7.03979
1 36.9465 30.8124 14.3174
1 32.4108 32.7843 33.4416
1 0.457642 16.9409 39.7484
1 7.80726 43.4674 40.5445
1 17.7308 23.6119 17.9561
1 16.8441 46.9582 9.51756
1 22.0154 6.80124 30.1266
1 42.87 48.3233 9.40643
1 35.7578 12.3366 5.51889
1 17.7541 47.2668 16.8409
1 9.56066 16.5248 12.6529
1 2.66677 12.5284 42.4282
1 49.4327 2.16277 43.3455
1 5.72329 8.00039 41.8376
1 20.209 34.3344 24.1919
1 37.7122 18.2826 43.471
1 16.7341 36.7782 0.578305
1 34.1031 25.6387 5.41984
1 42.0489 15.0259 46.484
1 36.9333 21.8597 0.36191
1 24.1511 34.4483 0.340149
1 46.8515 22.2722 49.7833
1 47.853 17.3391 43.3715
1 40.2912 47.2578 29.4942
1 21.9474 21.8015 49.3358
1 19.5337 19.3032 4.18676
1 12.749 0.199839 4.22475
1 7.64969 33.6583 32.9813
1 3.30459 33.7313 31.7453
1 19.9744 28.3487 11.136
1 29.6537 24.9662 22.3753
1 20.5252 18.841 35.7435
1 9.34996 12.3337 47.9849
1 13.5393 31.5254 42.8168
1 0.400508 36.9636 39.4659
1 1.90337 49.003 18.1622
1 34.0132 21.2546 43.64
1 1.33555 2.04017 28.72
1 46.6418 29.8634 17.2439
1 13.4404 47.3791 0.286977
1 10.8863 34.7493 0.943935
1 25.2081 31.9939 20.6442
1 13.199 13.3623 48.7125
1 27.2534 34.1399 43.423
1 2.38143 46.6106 2.9479
1 5.68789 22.0011 27.1206
1 11.2782 38.9907 13.0052
1 42.474 18.1208 3.08583
1 33.667 35.863 22.3381
1 49.3323 40.8595 30.0273
1 43.0015 36.8541 31.9484
1 36.3472 42.0846 38.5317
1 44.574 18.7831 33.4828
1 38.0642 27.9009 44.6663
1 8.07244 23.3581 1.60129
1 28.2097 41.8675 33.2669
1 38.003 46.8864 42.9177
1 11.9906 44.5214 6.87251
1 11.4475 1.19719 6.4327
1 30.1266 28.6686 3.0689
1 6.40117 44.8261 3.92802
1 24.138 1.63344 7.84483
1 13.0997 2.43553 43.0121
1 9.78813 7.95365 46.495
1 45.3647 12.6534 1.80675
1 39.4898 18.0332 5.52936
1 9.01038 3.787 9.7875
1 22.746 41.3629 20.4149
1 21.5455 24.8408 44.7182
1 35.6011 37.783 44.5062
1 12.373 9.15114 29.6181
1 13.0771 25.1057 21.8369
1 31.2455 35.3896 5.75585
1 48.9935 32.2902 2.5482
1 18.6102 30.5784 39.6309
1 14.1747 1.68537 1.59973
1 5.49077 27.6304 40.1737
1 4.14616 26.4836 6.36147
1 6.7205 22.8653 47.1514
1 6.23899 19.3714 21.2842
1 31.5358 18.1499 9.94656
1 41.6111 15.5504 26.3521
1 1.27614 37.4657 31.1696
1 13.4142 30.3045 28.7255
1 17.3695 43.0179 28.0032
1 37.1293 35.1385 38.9429
1 30.8564 38.0763 5.11723
1 12.9307 35.4691 19.451
1 39.0188 22.1279 18.3825
1 39.7695 38.6131 21.3817
1 16.1219 42.4894 25.5466
1 32.9931 25.5886 46.7398
1 2.06514 28.0573 44.147
1 1.30105 32.1387 6.64188
1 7.57706 24.2282 13.8755
1 28.9018 30.9473 40.2365
1 2.26901 25.2951 13.9426
1 22.9281 22.9558 29.2858
1 2.64468 17.7586 15.6925
1 4.45704 23.0736 3.813
1 44.2164 33.5903 23.449
1 44.4787 24.6143 46.2154
1 11.9834 8.44049 11.528
1 7.58216 33.2971 7.232
1 12.193 5.86647 16.7014
1 23.1484 29.3289 17.0577
1 45.5654 48.5924 35.5494
1 40.0134 42.2265 10.196
1 5.13672 37.0153 40.775
1 6.62689 5.04108 25.3116
1 42.8682 40.0031 21.3651
1 32.0488 44.1664 35.2198
1 23.7106 28.2637 27.5465
1 25.3956 27.1814 34.7542
1 37.1045 0.49698 14.9119
1 8.77093 35.4628 22.4849
1 36.6129 33.3488 33.6887
1 48.4543 30.3669 22.5272
1 12.283 22.5422 28.8853
1 48.8594 40.951 2.78626
1 6.70692 46.5824 36.6976
1 27.9911 20.7022 34.5814
1 48.0929 35.7263 23.735
1 47.9059 21.769 38.8611
1 4.94425 22.0369 37.2726
1 19.8387 39.8581 49.5007
1 0.31018 47.6549 42.1196
1 12.7818 1.58566 31.8807
1 15.4686 16.7479 1.69577
1 43.3065 14.1371 31.249
1 23.4413 43.6653 44.5022
1 36.9919 6.12933 16.8075
1 9.42134 35.3175 12.8118
1 48.4971 44.1282 33.1392
1 1.45576 12.2385 21.985
1 12.2807 36.9683 47.1065
1 17.101 8.07514 13.8948
1 7.46862 34.2334 11.2229
1 44.773 16.7108 16.6702
1 19.3417 9.0359 22.4114
1 12.823 14.964 41.4406
1 41.3214 22.6808 45.6307
1 37.8783 48.6274 5.86417
1 1.55719 48.8768 1.306
1 7.21549 38.3272 14.499
1 16.9962 33.0238 18.5583
1 1.08764 24.3282 25.5921
1 13.2614 49.6103 43.8915
1 5.22294 13.7509 4.4503
1 25.5543 36.9067 20.1053
1 25.6562 26.596 7.45293
1 31.0207 33.5613 28.5181
1 42.9275 44.3775 43.1187
1 22.7112 42.0171 39.3128
1 28.8929 25.7598 45.6356
1 8.05817 13.6163 34.6168
1 8.79351 39.8792 22.7666
1 10.428 2.38275 42.1637
1 10.7538 13.4975 18.8683
1 46.1949 42.8435 49.2301
1 25.8487 43.0102 37.8193
1 28.3352 42.4181 13.9142
1 24.5839 47.006 28.0666
1 17.416 28.6021 26.3385
1 10.9743 41.3141 46.0032
1 18.8351 32.849 33.1239
1 10.9344 38.4147 17.2147
1 43.4527 48.0859 11.9029
1 12.1788 7.05396 9.0087
1 18.5818 35.8335 2.51177
1 23.9107 34.387 31.9481
1 3.15009 26.8658 0.399622
1 2.41555 9.6275 21.5091
1 6.62479 4.94416 11.002
1 1.70457 40.049 3.18964
1 4.14091 18.0284 7.8306
1 20.2456 7.63795 26.0273
1 43.6662 33.9404 6.97105
1 2.43511 24.8463 29.8513
1 48.7648 14.2408 4.43318
1 17.0434 38.9529 19.2932
1 46.4358 40.1538 6.31498
1 31.3156 26.5334 48.6625
1 6.74331 23.8194 22.8072
1 33.1574 33.9809 15.147
1 12.9203 8.62895 0.397742
1 12.4364 29.5438 46.8646
1 10.3557 45.7333 44.1412
1 33.4824 1.97512 12.301
1 24.6433 42.7033 26.0695
1 46.2338 42.8545 10.3448
1 31.7527 42.3055 29.9469
1 9.48472 3.47221 18.1698
1 1.19744 21.8516 1.51809
1 41.7054 37.2155 36.9783
1 1.91841 13.1371 33.8725
1 33.0363 16.733 27.1279
1 17.2571 36.1491 25.7845
1 25.5697 44.4895 15.2657
1 14.0306 22.7557 15.7808
1 5.69884 34.1641 30.0462
1 12.6254 21.4803 41.5925
1 38.2885 46.2774 36.8439
1 45.7768 3.64818 22.2853
1 35.1488 0.850088 36.2214
1 37.4854 22.8211 35.2928
1 40.1504 32.2234 22.8887
1 23.276 18.2972 39.4714
1 38.0467 29.759 36.2137
1 18.8861 43.5483 38.5616
1 24.8698 3.25778 1.44156
1 49.5481 24.7654 11.1311
1 40.5261 23.5353 26.9276
1 31.7719 35.1082 44.8256
1 35.0551 40.9896 18.1034
1 45.2056 16.319 34.9276
1 27.7691 0.116311 45.0143
1 17.2519 20.8523 17.7236
1 19.212 17.8421 16.5025
1 16.0408 25.1768 22.6481
1 48.185 32.6839 7.70213
1 23.4912 40.263 28.079
1 48.2612 26.9927 30.1379
1 25.7447 35.2376 27.5337
1 27.2078 23.079 26.0047
1 34.0567 45.5367 10.2904
1 21.2249 22.661 35.1273
1 3.21153 15.69 45.6799
1 34.9228 39.6753 48.6385
1 32.2426 3.16751 7.4253
1 40.2421 36.231 24.0275
1 41.9648 28.7336 0.618268
1 41.5671 36.1033 16.9822
1 29.8297 15.449 19.1176
1 39.2909 13.2832 14.8393
1 27.1054 13.4366 12.2271
1 48.6893 47.2072 21.2707
1 16.262 46.9694 46.0779
1 23.5071 8.05408 12.9075
1 0.189403 45.1967 41.7062
1 20.7682 19.893 26.1107
1 32.0295 28.083 33.3412
1 7.90167 4.05545 7.46442
1 27.5061 33.3001 19.8632
1 18.722 35.7754 48.4527
1 34.7144 7.46178 2.26029
1 7.97118 1.56228 2.78176
1 35.657 22.0367 8.00418
1 1.80396 37.4719 28.4437
1 11.6583 35.5144 41.7611
1 25.4729 5.65805 2.47196
1 22.1698 34.4286 10.8305
1 3.52461 35.424 9.09393
1 4.49586 2.06952 2.96885
1 31.4787 18.8367 33.9973
1 47.3646 18.1959 1.94657
1 14.1457 36.9084 45.2478
1 45.2386 39.0842 1.83104
1 2.24182 14.4244 12.0914
1 49.5735 22.9083 13.1748
1 46.0322 34.6687 19.8989
1 28.0289 20.7759 30.6052
1 29.5977 17.895 45.337
1 32.3614 7.92924 17.8096
1 1.32317 30.7663 9.64884
1 3.77899 25.7828 43.4353
1 45.2984 24.5794 0.380141
1 33.7736 40.0856 1.28102
1 38.0873 22.0488 24.3488
1 8.61499 19.0858 16.8032
1 21.9114 7.16184 8.51157
1 27.4543 2.3281 40.6715
1 25.897 26.0121 22.3841
1 47.4237 39.2818 34.5875
1 29.0878 6.23052 28.1189
1 43.8296 15.7473 40.6926
1 25.2181 7.01564 19.4054
1 8.51157 29.6321 45.3874
1 20.9468 36.3649 7.39284
1 46.1787 45.2523 6.21068
1 19.2832 2.65587 32.3448
1 5.76873 25.2217 24.7238
1 23.0832 15.5041 16.2391
1 18.7553 35.911 9.09084
1 17.5307 38.4044 37.0891
1 14.681 36.2795 7.45582
1 6.81869 32.595 22.7338
1 20.8448 37.8666 20.9346
1 18.9506 20.7352 24.2913
1 9.12867 32.0088 5.52697
1 14.8096 11.9439 39.0259
1 45.1048 46.8215 23.7589
1 7.48201 6.38561 3.06291
1 38.2782 10.625 28.4767
1 15.9148 25.0614 33.5154
1 12.6237 14.2984 34.383
1 45.1351 40.9506 43.9095
1 39.3178 26.7571 17.5818
1 33.6981 4.2638 0.0616369
1 9.25016 42.6333 10.04
1 45.5446 47.7627 3.43608
1 37 37.5867 5.92182
1 23.698 7.73699 3.36389
1 22.1129 14.4318 46.4731
1 47.0555 39.1354 3.68055
1 48.4452 43.7198 3.24692
1 45.7508 0.804363 3.15073
1 7.96324 43.7727 33.7569
1 38.25 1.65097 6.07932
1 26.8736 47.4103 4.75466
1 44.1075 21.3051 48.8601
1 39.0003 42.8349 34.6447
1 14.7841 26.3412 16.0104
1 33.3041 42.1791 21.6942
1 41.594 34.7161 28.4154
1 45.8487 20.6691 2.51208
1 42.9312 40.1784 4.49734
1 8.27847 20.8632 1.7925
1 21.2251 45.7768 21.9197
1 30.4749 46.3465 23.4939
1 31.7103 23.3479 5.68464
1 2.22436 6.81473 31.1213
1 20.0983 27.459 47.6373
1 20.2294 40.8396 30.7561
1 35.998 3.82543 26.3504
1 35.036 20.3897 24.1187
1 11.4044 38.675 21.984
1 3.26907 45.6091 19.1547
1 10.6455 40.1672 26.7252
1 16.6854 34.0043 27.4248
1 6.62395 0.385314 36.4049
1 6.01953 31.564 37.6738
1 40.4473 40.9699 38.5224
1 13.9574 15.0372 37.9027
1 0.288201 12.7562 2.7042
1 16.5864 7.48916 16.7107
1 10.2485 28.5773 3.62387
1 2.59361 4.44182 20.4945
1 25.3862 8.76363 33.6911
1 2.56293 8.15381 0.24273
1 32.234 5.38002 22.194
1 5.81196 27.6894 32.8946
1 24.6263 39.0143 49.648
1 41.6193 30.0322 37.1554
1 25.1567 7.57721 36.2177
1 34.0123 29.1252 3.58307
1 38.5525 30.9148 40.3692
1 42.2118 27.8795 41.6451
1 45.6167 45.1544 8.95616
1 4.96336 7.3335 31.6323
1 3.71285 41.4104 16.3149
1 44.9778 35.2224 0.0299141
1 28.8622 25.7925 48.3901
1 37.785 9.4385 13.5339
1 8.53503 2.31047 45.2621
1 11.9863 5.14007 23.6879
1 29.9506 30.8287 43.8349
1 25.8649 23.4892 15.1451
1 9.88784 39.3978 41.2796
1 29.0964 4.40438 0.847891
1 22.7629 23.4724 6.47023
1 47.9595 35.5351 26.478
1 5.41789 6.88852 45.4571
1 21.1791 6.90055 4.35079
1 31.1003 40.038 7.48676
1 43.0446 44.7211 1.8948
1 4.48109 23.2243 31.0358
1 44.904 2.51967 19.1762
1 22.4457 0.165753 29.9433
1 23.3554 49.5815 38.6753