4096
 Atoms. Timestep: 12340
1 39.7898 21.9575 41.0221
1 18.5791 12.3819 3.26787
1 24.0312 13.412 15.6665
1 33.971 49.2527 42.3514
1 16.1289 12.6804 33.3399
1 32.9704 16.3501 27.9905
1 15.6753 39.106 29.513
1 47.5074 21.5472 39.0393
1 9.47558 16.0808 23.7341
1 28.0714 3.90038 16.1892
1 18.0629 2.19085 3.0309
1 21.5157 34.8719 10.558
1 41.9006 23.6006 31.7788
1 15.6146 38.8854 13.3759
1 34.8012 35.4504 42.4043
1 33.7656 7.01998 14.7205
1 4.02336 49.3948 47.5766
1 40.9516 8.74677 26.7818
1 15.4897 27.5534 38.3348
1 4.67792 30.7409 18.8131
1 42.9815 20.5121 26.3907
1 24.5 41.926 26.9533
1 13.4739 7.77177 7.99048
1 29.1997 13.0181 5.01792
1 1.37031 0.507636 3.14685
1 8.11924 16.8749 43.5451
1 2.71522 15.0872 7.66784
1 3.05984 15.4229 14.3208
1 13.4337 7.14491 42.6367
1 9.47737 37.5331 44.0683
1 34.3789 1.39195 5.83113
1 29.2644 8.76326 4.89285
1 42.5899 22.4588 29.1633
1 21.8418 47.034 14.2266
1 49.1438 38.0375 48.7792
1 24.2632 40.6512 0.786214
1 44.834 34.6677 40.9979
1 26.3969 6.84259 36.338
1 7.48329 23.8128 44.6851
1 1.14339 27.3798 3.11832
1 21.856 48.0614 40.0254
1 42.3743 26.2802 33.8083
1 30.7641 11.5482 15.915
1 16.1779 34.6905 1.60351
1 18.862 12.6327 48.8186
1 4.29869 42.6527 23.0553
1 13.1009 16.2307 40.9357
1 49.7463 5.4255 3.35905
1 23.2105 4.3939 17.1652
1 47.02 8.46487 48.3876
1 5.74525 26.2472 14.5148
1 1.06367 5.16253 43.695
1 12.8162 17.8146 34.0213
1 18.2033 2.76338 34.3646
1 30.8047 32.7378 7.98797
1 27.198 10.5993 3.88345
1 12.4181 5.37982 26.5917
1 16.7363 3.77952 9.41713
1 31.5741 16.3254 34.2719
1 1.28699 11.8675 14.2476
1 35.0059 12.2217 16.0999
1 43.8137 16.2117 20.1255
1 2.13871 16.1026 11.7541
1 21.3137 5.1675 7.30403
1 21.8625 27.848 46.9035
1 49.2236 5.79503 0.637072
1 42.067 43.9678 20.3526
1 43.4834 3.51156 5.87299
1 21.395 44.6225 4.41827
1 9.52316 41.9566 6.51223
1 7.50103 44.9117 3.4528
1 29.8378 20.8083 38.1348
1 16.2957 34.3137 22.9367
1 45.8089 22.01 49.6364
1 46.6443 21.2637 47.291
1 11.7942 15.6173 9.97458
1 13.9863 39.034 39.3349
1 47.3251 44.882 32.2601
1 18.5738 25.0569 36.2849
1 19.4326 47.404 17.9862
1 47.941 2.75373 34.515
1 28.6432 41.4463 36.2091
1 5.54357 43.0458 35.8834
1 14.512 20.6728 45.8873
1 18.7012 44.8999 3.12899
1 28.2019 38.1936 38.4233
1 18.6095 47.1362 4.62916
1 35.3911 20.936 22.7999
1 12.7186 2.8159 12.7316
1 30.6732 13.9554 17.8262
1 37.0252 48.2062 5.41072
1 0.7172 27.029 12.427
1 16.5912 34.1425 11.6402
1 48.229 49.0797 13.1157
1 41.5425 9.10343 41.0877
1 19.2669 42.1175 7.74138
1 37.7371 25.5381 32.252
1 14.1813 42.1582 26.7868
1 38.0987 14.5729 8.28538
1 45.4488 10.1492 3.18974
1 1.78973 11.7338 43.696
1 26.1307 37.3946 1.54109
1 6.16851 15.0479 38.7218
1 21.4104 22.7902 22.8794
1 2.59091 32.3533 6.73094
1 41.2996 13.487 44.0165
1 38.2612 11.7016 16.9076
1 22.1528 20.7678 32.9484
1 31.8297 26.7745 47.2756
1 30.402 41.6518 48.5967
1 16.4251 1.74261 32.3877
1 3.42899 35.5081 38.7588
1 39.0907 37.6822 2.84435
1 6.39075 23.9294 23.4612
1 19.4007 45.2546 32.8545
1 22.4601 7.27968 5.92651
1 13.0902 9.67806 12.011
1 12.8214 24.5933 44.3063
1 30.6503 42.7139 15.2213
1 47.2996 0.111611 24.1141
1 18.7006 39.4425 19.0671
1 7.30632 15.9949 34.976
1 21.247 38.9889 25.4768
1 11.3674 28.6438 7.05882
1 2.01401 43.5834 23.8648
1 41.4265 23.0184 8.23336
1 16.3329 44.1023 10.7655
1 10.3396 46.8968 5.3541
1 25.267 17.9929 8.24404
1 33.6931 28.6334 22.5008
1 48.3895 8.22784 31.7202
1 24.4534 6.3674 46.8057
1 42.5811 44.5116 34.1983
1 6.33355 40.1821 38.9588
1 1.77115 37.7904 14.3617
1 45.3032 8.06152 6.65033
1 5.38745 48.1491 3.56783
1 31.4071 23.404 7.20561
1 36.8176 45.5742 23.8359
1 30.6228 36.6309 38.1269
1 15.326 26.3802 40.7431
1 25.5871 4.03854 18.0549
1 18.8341 35.7506 19.7189
1 0.579902 49.067 43.4714
1 32.4957 25.0117 45.2358
1 2.53315 35.9288 19.983
1 42.2302 16.9514 46.698
1 20.4175 18.0826 15.3173
1 42.4493 40.8227 12.5995
1 42.3114 18.8399 10.8102
1 49.5159 17.0485 11.0174
1 34.9394 48.9745 7.00712
1 11.4678 14.8172 24.6094
1 30.9407 42.587 10.1646
1 2.0603 13.1221 39.6346
1 17.4146 44.2224 37.483
1 49.2802 25.1502 37.7107
1 37.4708 44.7467 46.4618
1 22.3256 41.5967 17.6698
1 23.5774 17.3527 18.3403
1 20.1708 0.804081 44.3897
1 2.95834 0.900582 18.7272
1 28.417 44.7122 12.4457
1 49.6859 9.81846 45.6377
1 49.4803 15.2535 1.52191
1 38.4469 3.59731 13.4544
1 30.8139 26.1812 41.8427
1 27.5668 11.8411 12.4228
1 5.70549 45.0535 37.4073
1 5.9515 37.5925 17.9985
1 2.14279 43.9872 39.3721
1 29.4687 0.644398 3.83079
1 10.325 15.2429 3.1622
1 41.1116 18.2482 8.47142
1 18.8864 43.7363 47.612
1 7.94066 1.27817 42.0269
1 7.19194 12.4551 41.4652
1 2.58871 37.0119 8.30189
1 35.7756 20.9279 43.4207
1 27.3703 3.05802 35.6386
1 44.8677 21.3392 19.9967
1 19.1281 16.813 39.1951
1 38.9711 19.5359 40.1555
1 18.0082 8.66055 4.4112
1 34.9637 20.6577 47.0666
1 14.2444 19.787 36.5108
1 44.6504 43.6409 27.6204
1 32.592 2.60459 17.7312
1 7.35275 9.92704 19.5312
1 6.3767 3.87079 12.9069
1 1.93585 13.2508 34.7277
1 20.8271 11.7134 12.9782
1 0.673352 47.5486 12.5878
1 48.2091 45.5463 44.7646
1 6.28965 49.2635 9.51063
1 2.83538 13.9048 47.7332
1 2.05142 21.0167 21.9316
1 3.39087 19.551 13.6465
1 6.12032 10.6521 47.6461
1 40.0994 8.66185 21.0634
1 32.4068 14.1278 22.3367
1 43.5739 3.12213 2.19822
1 20.6146 0.977121 29.6046
1 0.377916 42.2635 25.6547
1 29.1973 29.0593 20.2799
1 38.4031 9.67138 38.8001
1 20.9239 14.0931 25.8962
1 23.41 35.2001 6.70702
1 38.5153 14.8176 32.3083
1 23.7677 8.7522 8.46851
1 9.41819 0.382706 39.8558
1 23.8822 39.6581 22.6474
1 39.0433 17.9048 13.6998
1 8.65965 7.80757 32.347
1 4.18166 24.0502 15.1439
1 9.93448 43.6428 39.7194
1 30.1527 21.422 12.1595
1 15.2196 44.4427 47.3785
1 32.6014 9.07012 23.0835
1 6.2908 39.9586 32.6568
1 29.3544 7.66652 33.3762
1 34.7733 8.74616 20.2783
1 41.9574 26.8987 27.1367
1 41.1394 25.3347 23.0047
1 47.0765 9.98605 36.5395
1 8.52249 37.6624 17.7032
1 43.0748 34.7735 35.9643
1 25.2233 26.0681 26.8584
1 9.68559 31.4712 13.2716
1 11.8772 17.1398 36.6629
1 27.1968 0.804025 49.1894
1 30.3588 35.9697 27.2434
1 0.208978 40.1403 11.4759
1 25.6878 25.5368 29.4064
1 23.2309 3.44012 42.8055
1 19.7023 47.1034 26.5683
1 47.5896 9.0898 21.5358
1 41.8864 34.3891 5.98803
1 11.2871 34.255 7.05123
1 45.3687 17.2681 25.2486
1 5.91023 14.5762 11.2664
1 7.71287 1.34526 22.3571
1 40.9528 24.2496 12.1137
1 6.19332 33.3861 28.3348
1 6.58006 6.00218 29.7489
1 39.7016 26.6742 33.626
1 24.0357 2.38075 11.2443
1 26.8177 31.118 42.3567
1 16.9459 4.54121 6.75564
1 43.9029 20.384 5.59006
1 2.96748 11.3151 8.15324
1 9.30353 48.5244 2.10656
1 5.44967 10.0733 22.181
1 15.4995 33.5595 42.5236
1 46.5437 39.6605 27.8277
1 33.7822 30.118 35.6905
1 5.30967 1.29884 37.1041
1 8.97284 25.6573 29.0997
1 6.79024 3.30769 8.56198
1 45.7188 18.7564 47.0258
1 9.79459 4.1708 43.3007
1 16.8025 35.9411 39.0652
1 26.4304 6.49146 22.1964
1 43.2597 3.70301 17.9573
1 9.95481 17.6283 21.7023
1 9.66082 25.5028 7.27888
1 7.59847 17.2311 1.05151
1 20.0026 31.7664 24.0107
1 22.9477 12.5461 44.1513
1 45.4983 15.0169 41.0031
1 29.5524 45.2085 46.7289
1 40.6763 38.1349 5.73902
1 0.423149 30.8131 32.1744
1 19.537 34.8364 47.979
1 49.8445 25.2113 45.7915
1 11.8535 19.2225 3.68378
1 6.36457 20.6601 14.6342
1 12.7015 45.7179 24.9374
1 27.5757 27.7697 30.2961
1 45.4269 43.7492 40.0813
1 1.40303 3.81257 19.7985
1 8.56235 11.4331 27.8762
1 5.45064 42.0784 0.428187
1 47.9951 32.3258 19.9857
1 8.25893 30.1319 21.1447
1 3.48716 33.7215 40.9275
1 27.2969 18.4148 37.2311
1 2.35737 22.8733 10.976
1 18.8063 0.568818 14.0869
1 7.66831 27.1407 7.05345
1 16.358 15.3419 27.6308
1 42.4074 14.9662 48.4946
1 8.62784 16.7691 29.6393
1 12.4216 43.7163 10.4382
1 2.84647 20.6541 31.9815
1 9.58268 24.2632 38.0755
1 40.7665 39.8428 39.1623
1 30.9109 7.70049 16.9871
1 39.7545 12.0984 23.4843
1 22.6757 11.9288 1.84427
1 42.9881 44.6856 7.03474
1 28.475 12.2954 29.6692
1 8.71082 31.2609 41.2809
1 25.401 45.9484 35.5372
1 48.2889 33.047 8.36908
1 16.3023 38.9018 24.8668
1 8.08966 47.6802 47.2333
1 40.9201 20.1388 29.682
1 9.08586 5.33404 26.2745
1 23.5293 1.93723 19.1125
1 13.9592 42.1917 48.4711
1 38.9584 40.3292 40.8485
1 43.311 43.9904 2.29051
1 13.4838 45.572 7.65814
1 8.17151 33.7506 17.7969
1 12.7706 33.3963 2.12923
1 21.1952 22.5537 8.83264
1 28.1735 35.2403 40.6542
1 16.1583 21.8758 34.3598
1 25.8496 28.9444 26.0712
1 32.2558 40.9362 31.2963
1 2.58369 28.8206 13.3331
1 12.3947 35.9608 16.0263
1 14.8816 10.3431 40.2923
1 16.7945 34.2917 36.7663
1 7.68684 6.03481 37.8788
1 33.8724 47.3938 28.5747
1 7.7299 21.8009 49.5896
1 31.3938 49.6711 25.9107
1 14.8842 16.6718 12.2316
1 35.2244 35.244 23.6752
1 3.65413 22.3474 28.7603
1 17.6229 17.5055 32.0736
1 0.791054 9.51976 8.10949
1 18.5903 2.09782 48.3782
1 29.6021 9.59723 47.8315
1 37.2629 24.5721 9.55808
1 25.806 47.9716 31.9145
1 10.9986 15.6223 48.6254
1 43.7189 35.223 22.2493
1 26.3272 3.36425 44.9124
1 10.3646 48.5784 12.3715
1 30.6647 27.6685 3.80873
1 4.68724 30.9215 43.2078
1 17.2996 32.1821 20.9034
1 23.2232 4.52494 22.3061
1 17.1234 11.2244 5.61456
1 7.5761 37.5591 36.7445
1 37.9079 45.9538 29.3594
1 1.40788 14.4616 21.2033
1 31.581 10.1157 29.3162
1 42.2215 12.251 32.3495
1 47.4108 26.0282 41.5816
1 20.9678 48.6859 4.5731
1 15.8503 8.97423 31.339
1 43.3536 4.78767 25.1095
1 20.5318 10.6088 2.70898
1 11.6425 37.2592 13.2313
1 21.5227 23.1853 41.9956
1 33.2954 42.03 33.6169
1 16.7348 11.9865 46.7972
1 47.9051 27.1967 29.0233
1 44.8157 16.9275 11.4163
1 28.1963 10.963 17.4284
1 41.9397 18.7305 22.5265
1 11.7062 23.8709 26.4951
1 33.9775 41.7727 1.41108
1 16.9949 35.1207 32.0526
1 26.419 38.1531 10.0637
1 2.0885 48.5791 34.9554
1 1.7869 31.5882 44.1684
1 23.6321 44.1927 48.5265
1 32.2573 15.0068 2.08535
1 42.7722 15.7568 40.3528
1 6.95075 30.3124 6.55515
1 8.55603 17.5943 16.6001
1 3.65452 36.2105 12.9383
1 2.18157 9.48874 46.9277
1 15.7685 14.9141 24.7311
1 0.556658 0.454858 17.2389
1 41.1908 19.9994 16.6816
1 31.0857 6.85391 31.2368
1 9.98983 21.4581 45.4175
1 0.694262 7.58546 10.1312
1 3.38087 2.64058 28.5518
1 14.3907 31.943 34.3536
1 8.6717 45.9119 1.44019
1 23.3602 26.7306 10.7361
1 9.01586 17.9621 36.2386
1 19.06 8.64765 45.6509
1 32.2743 28.7296 9.28737
1 8.99736 28.6828 0.135382
1 25.4722 49.0738 8.14904
1 32.9437 15.9747 6.50495
1 12.3862 12.1179 10.825
1 17.9397 25.0267 16.8653
1 26.4375 18.4488 49.7173
1 34.2628 5.07999 22.6653
1 38.3129 47.6752 15.0771
1 8.60258 6.20826 22.1383
1 25.6796 48.6502 40.9986
1 6.95676 42.8315 27.126
1 7.18209 11.5095 7.53341
1 33.2751 20.766 44.8221
1 13.9983 1.53721 18.6403
1 10.2834 9.32447 45.4365
1 10.6886 23.1523 16.6372
1 31.3263 7.12631 35.359
1 3.87856 42.6356 20.3795
1 18.22 13.2248 7.80922
1 45.7121 12.9053 35.4092
1 48.4454 8.02916 19.2269
1 25.4336 47.0636 19.3457
1 5.84935 37.8662 46.0366
1 -0.181805 0.947348 33.2239
1 0.337697 22.5302 39.1814
1 21.4272 0.15065 14.8261
1 32.3271 34.899 1.11119
1 17.4145 12.4641 27.3741
1 13.219 30.713 21.6451
1 43.2651 2.76245 28.7026
1 32.8752 27.3789 37.8931
1 32.186 46.5298 33.0434
1 4.68825 5.64983 14.5967
1 48.1793 35.3705 24.4467
1 7.15547 29.1017 27.317
1 24.6882 7.39337 26.0057
1 22.9499 8.59661 17.8278
1 1.86595 43.8998 27.1533
1 39.8186 24.6894 47.8349
1 18.8828 38.1756 43.3634
1 35.321 42.0212 10.5543
1 46.2893 42.5601 10.6735
1 26.0632 34.9485 3.22389
1 45.4293 2.75108 31.5042
1 7.41529 47.0597 5.23015
1 10.6701 28.2043 39.4765
1 9.30018 20.2496 25.3081
1 4.62292 10.8685 31.1195
1 4.66578 43.2404 5.26001
1 1.18007 34.9459 37.861
1 14.4991 30.4256 13.0509
1 6.56924 0.644418 29.7236
1 13.5772 7.04065 25.0537
1 20.2601 4.16428 23.9316
1 15.4786 14.2513 38.226
1 8.08913 7.47456 24.3997
1 13.9491 14.6395 45.7276
1 40.7845 22.3282 3.47025
1 28.9279 43.2724 34.0143
1 9.28677 9.47621 14.3121
1 16.1899 3.01826 25.2286
1 20.8443 1.22065 47.1439
1 34.9035 20.2177 41.0082
1 38.8456 13.1142 25.9193
1 42.57 40.5423 35.3709
1 17.2059 38.5214 41.0321
1 13.722 39.1649 21.4031
1 35.9977 0.877014 39.1941
1 33.81 5.78045 27.1145
1 20.0405 4.71675 26.8501
1 12.8492 27.9289 43.0635
1 47.7651 10.5317 43.1002
1 43.122 6.71461 3.11658
1 28.5735 16.7001 28.3169
1 48.2022 4.30612 19.761
1 13.5529 4.78513 37.017
1 10.9468 31.1935 36.1352
1 25.2162 20.8177 0.829667
1 30.929 38.6037 33.4919
1 44.44 18.6707 21.0866
1 6.54639 6.57568 7.21733
1 36.626 29.3859 21.2924
1 46.052 40.6604 47.234
1 33.3019 23.1886 9.83294
1 44.1451 9.64341 29.8126
1 14.5759 41.8011 38.1757
1 7.80289 3.25376 20.3909
1 13.7553 4.06024 17.4709
1 37.9847 13.1551 34.8661
1 6.958 21.752 31.6142
1 13.5447 26.4574 23.6311
1 27.6159 49.1208 37.6253
1 9.13602 39.4369 21.9726
1 6.49718 21.1356 41.6954
1 46.5006 30.8811 16.3179
1 35.4423 28.7596 12.4483
1 1.88946 11.9615 37.4028
1 31.5748 19.0214 0.049884
1 14.6827 34.5329 40.0851
1 18.9416 33.3947 18.7778
1 35.9335 19.207 34.1154
1 44.2783 10.699 0.713051
1 33.0843 30.9732 10.2603
1 42.3031 7.25152 32.9399
1 35.9443 38.914 9.94944
1 16.3222 2.83363 46.9048
1 9.84911 9.56934 25.305
1 12.7453 33.1647 10.0924
1 30.7957 19.816 16.1565
1 47.9734 42.5266 40.6623
1 3.9474 8.54544 37.265
1 5.19373 19.1845 47.2519
1 44.5055 0.478403 12.2417
1 34.7421 9.25121 8.20022
1 49.5061 31.5058 40.3037
1 12.8894 33.2143 23.0514
1 14.2045 48.0006 7.08301
1 30.3142 15.9152 14.8007
1 29.5723 1.21543 14.5033
1 0.244688 5.18009 11.9147
1 17.42 8.68187 14.7729
1 18.5341 25.8641 10.0488
1 44.5217 34.2034 19.138
1 44.9183 23.7045 35.6707
1 46.952 18.9487 8.18661
1 30.2098 10.2935 7.50366
1 28.336 32.1108 21.4179
1 13.4325 13.7575 5.23099
1 40.0224 40.2775 16.5668
1 28.9784 18.1987 1.13062
1 42.6064 35.7862 1.1189
1 8.23534 25.6892 46.7919
1 36.9299 49.0194 19.2102
1 41.8289 21.2269 37.4273
1 28.9424 33.1872 19.1026
1 5.6313 48.2426 35.0721
1 29.5362 1.39131 38.5445
1 48.5957 18.5111 35.6246
1 42.0099 26.2392 14.2963
1 16.3515 16.817 9.701
1 23.4687 33.2548 26.3409
1 9.01629 30.3618 30.5653
1 3.57298 22.0421 8.3243
1 38.4487 12.3745 1.86319
1 5.66268 17.2701 45.4156
1 3.53386 4.27981 34.4805
1 17.6839 47.8879 42.085
1 15.3563 42.2109 31.1954
1 28.3903 1.23926 17.3064
1 12.105 16.3019 18.1353
1 44.7747 41.4516 31.4583
1 19.8003 15.6524 43.5605
1 34.8753 2.93468 8.28073
1 21.4746 5.30532 43.5212
1 10.8866 9.324 7.59359
1 36.0247 10.7063 44.8084
1 16.8932 8.85597 19.5147
1 49.4424 45.8769 22.2816
1 42.0099 11.9717 46.0477
1 21.0595 49.1875 22.6926
1 1.50135 5.62773 29.9903
1 25.859 24.1651 13.0209
1 44.652 15.1787 34.7446
1 27.8474 18.378 11.724
1 15.4575 16.0066 31.2916
1 41.0249 30.0737 6.91297
1 21.973 4.1451 13.5446
1 11.1988 48.4855 44.1777
1 3.06749 20.1745 42.8702
1 31.6655 41.8121 5.75264
1 27.9486 25.702 16.1059
1 5.13323 45.3598 11.3321
1 19.3671 46.2801 15.2289
1 16.4889 39.7456 9.01587
1 10.0165 16.115 5.76691
1 6.07367 27.82 11.3376
1 22.892 11.5445 23.2523
1 31.2934 4.09405 30.9767
1 4.18308 20.2453 34.3009
1 18.6933 41.9274 3.1624
1 6.36086 11.0888 16.6918
1 41.1887 15.5258 5.55891
1 46.8582 38.6694 33.9958
1 33.2309 8.52282 30.6864
1 24.3187 33.5092 13.7642
1 4.6015 7.59964 41.2262
1 46.4729 40.5264 2.04169
1 31.3433 24.2072 35.2904
1 47.2345 1.00675 39.8978
1 1.79526 9.04349 42.8586
1 12.5677 21.6572 44.4848
1 9.44421 23.2291 47.5906
1 44.4122 1.86017 37.0071
1 47.4018 38.837 8.10055
1 15.8368 25.2094 3.00365
1 28.7957 49.0902 25.1699
1 0.735654 27.9839 19.8559
1 21.4323 44.0327 28.4695
1 18.7904 46.8494 37.6401
1 28.4882 6.58842 6.04153
1 18.3432 43.8677 22.6653
1 0.537805 19.6249 13.8337
1 14.8884 26.3353 49.0102
1 43.5853 6.17212 0.431988
1 33.0602 19.9424 4.1995
1 30.6536 13.0743 2.47143
1 40.5535 11.9178 34.5743
1 45.5467 4.84722 3.29177
1 8.66251 26.1724 42.886
1 15.6161 20.9199 3.07922
1 48.6821 32.9896 47.3371
1 2.70344 3.39574 46.8995
1 43.459 48.0367 44.2596
1 13.97 11.4967 6.38801
1 34.595 25.5169 36.3263
1 21.7675 44.6482 19.2582
1 42.3202 33.8822 40.4691
1 28.6982 36.126 43.6085
1 32.5233 22.9546 25.9852
1 29.1621 46.8365 8.98977
1 8.80626 12.707 16.6181
1 26.7949 9.72003 31.9374
1 48.7464 1.7276 6.38461
1 49.1606 21.406 15.5548
1 44.9967 1.77841 8.74678
1 9.38222 23.9652 2.93282
1 23.0568 32.5114 41.494
1 38.972 23.0721 43.1647
1 14.9165 11.7247 22.2914
1 3.70546 21.2352 45.7195
1 38.4146 18.4769 7.06364
1 32.4659 16.3676 43.1156
1 16.0709 10.7399 43.1229
1 49.5325 4.12143 36.4018
1 1.86208 19.7573 9.56488
1 8.25913 29.2182 34.8276
1 33.9626 22.5919 39.8353
1 39.2972 31.3091 43.9917
1 46.814 11.6878 33.2318
1 9.27495 24.386 14.1532
1 47.7534 41.4359 23.1379
1 27.5727 13.6944 32.1384
1 45.7722 7.47917 31.3218
1 39.3665 42.8326 48.0314
1 46.9949 9.56398 28.9536
1 30.5621 18.9109 11.3583
1 47.9824 48.6274 32.4634
1 33.0498 34.0157 44.4723
1 45.2446 27.3002 6.66364
1 44.3778 12.1846 28.7979
1 6.18287 15.1052 49.1212
1 -0.131099 44.6928 15.4504
1 37.4144 42.0004 8.39461
1 23.447 33.3831 46.7566
1 3.56985 15.8435 41.2675
1 10.5162 37.4472 39.7013
1 6.26455 11.3447 44.1311
1 16.7925 19.433 38.0906
1 46.646 6.08269 44.1539
1 10.812 20.0497 14.0686
1 1.18067 8.18656 28.6358
1 24.8749 26.0687 44.6342
1 5.66683 40.0542 35.9233
1 11.177 43.4919 32.1397
1 19.4664 27.3215 29.4147
1 4.97895 13.189 40.0841
1 37.1291 8.68443 28.751
1 25.2679 40.3129 30.3837
1 30.1785 18.1912 18.2905
1 19.4665 8.45403 36.638
1 27.72 45.2514 38.5098
1 28.7314 5.35176 18.7033
1 17.7277 4.38367 38.4737
1 12.4532 20.8574 19.9362
1 6.85213 26.2741 21.6476
1 19.182 38.9732 2.49977
1 15.4746 23.197 23.9546
1 15.6234 5.94097 34.7593
1 34.5685 35.5913 27.4322
1 49.1011 32.0651 35.1866
1 26.6298 16.0726 17.6375
1 10.871 0.630503 21.8153
1 20.9612 13.892 44.9784
1 27.9388 11.577 7.02449
1 46.7185 49.7122 10.4186
1 0.214975 38.4827 41.6454
1 40.1403 37.6882 33.774
1 0.407554 44.6269 46.3466
1 16.0238 44.4141 4.00615
1 45.2073 0.146767 16.351
1 26.6263 19.7489 9.76545
1 40.5119 43.9911 41.1345
1 46.4432 0.410927 35.7061
1 35.4378 23.5004 5.51615
1 47.8565 23.3041 29.8681
1 1.54378 8.33252 36.1213
1 12.3511 13.5092 3.07232
1 25.0142 45.0216 46.4618
1 10.3397 3.6988 34.3702
1 48.537 28.2835 10.7536
1 20.0255 39.973 14.1679
1 41.6179 9.1252 45.6734
1 18.5133 32.6481 28.3834
1 3.69742 28.0514 33.4987
1 1.2634 17.9985 36.4194
1 9.78257 27.0638 24.2755
1 29.0655 37.9028 30.808
1 20.57 36.4598 12.6494
1 1.09217 39.2075 39.0767
1 34.6573 15.4844 44.5769
1 12.8264 26.3034 7.20104
1 18.1863 17.7146 44.4617
1 2.52936 48.1017 14.6573
1 11.2369 49.9479 36.1072
1 39.6013 35.2302 22.1425
1 20.5618 14.2351 3.31284
1 32.909 48.9743 17.4006
1 10.0256 36.0968 8.48912
1 4.24442 0.678657 14.9343
1 46.3136 36.6614 6.4445
1 3.92902 30.3042 24.4634
1 46.6878 49.0319 30.0949
1 21.3433 2.28466 1.77596
1 25.4353 6.38673 6.2214
1 16.0243 17.6716 6.05876
1 27.68 48.8847 33.5425
1 41.5881 46.2516 42.1571
1 43.3462 35.1554 45.6398
1 40.2458 22.2058 21.3889
1 23.0169 49.6486 28.4703
1 9.97865 2.07855 0.989605
1 45.4503 45.8673 41.9167
1 2.95533 44.0248 10.0053
1 20.2503 36.684 0.361328
1 22.3134 22.0807 0.594367
1 38.4107 36.2924 48.4299
1 30.9215 7.02057 45.0964
1 7.94588 47.2698 43.0104
1 6.95191 1.39178 14.121
1 29.5613 20.9413 35.6542
1 45.3337 37.4361 42.6962
1 8.86582 30.1218 44.0299
1 18.3076 30.2929 32.3026
1 3.85428 1.80202 12.2836
1 21.9898 18.4468 21.3959
1 49.6361 36.497 11.2626
1 7.3732 17.3897 32.7926
1 43.9358 30.4512 24.8797
1 32.202 20.6071 29.4972
1 23.3898 16.8911 44.2008
1 16.6996 43.2733 13.437
1 41.9051 37.0225 36.2797
1 14.9164 47.391 42.7221
1 42.1159 46.1654 18.6211
1 19.1207 24.421 24.377
1 17.7175 0.257737 28.7669
1 36.3378 31.1492 26.3899
1 47.4063 24.1685 9.83051
1 22.7344 13.8131 34.1348
1 38.9516 21.8818 1.56799
1 47.9044 8.34039 5.7565
1 32.6783 22.4332 22.6434
1 11.0278 36.9312 4.53046
1 19.5293 41.3175 22.562
1 49.7452 39.8299 17.4855
1 26.0041 16.2415 27.1647
1 8.65327 47.4106 40.2877
1 16.3547 43.4479 35.312
1 45.2191 31.1833 5.33845
1 35.6988 13.0457 41.0839
1 14.4822 14.2765 29.134
1 35.666 10.065 38.0204
1 0.781559 33.9418 13.723
1 47.9581 49.3373 42.3099
1 1.26207 2.39955 11.9814
1 20.7705 0.413692 32.1997
1 47.9658 27.2896 5.74915
1 30.4882 15.5488 47.066
1 35.4564 17.3668 32.2145
1 25.8852 36.2703 5.63357
1 4.67368 21.3388 26.3926
1 31.5007 48.0371 39.9416
1 31.6592 18.0391 45.2805
1 14.4685 1.10839 14.109
1 12.7319 33.6688 14.7077
1 25.0633 16.0646 0.652586
1 46.6603 30.9869 22.1917
1 44.4303 37.0666 19.7091
1 35.1921 49.163 11.666
1 44.0474 41.4569 43.7962
1 38.616 43.8008 12.3852
1 2.29415 38.1882 11.081
1 37.0407 48.1488 44.0147
1 6.46189 32.2454 39.0532
1 42.4912 37.8342 48.5865
1 49.6767 17.3892 26.9822
1 44.7319 1.74178 47.4551
1 7.40535 27.8222 4.37457
1 10.1117 33.715 1.81489
1 48.5802 29.0281 17.1871
1 45.2501 3.75471 34.336
1 7.34821 1.99707 48.931
1 39.76 27.4035 15.279
1 35.0114 36.6179 7.9257
1 12.4068 5.04878 33.7111
1 49.2075 11.953 3.38255
1 33.0193 36.6043 33.1964
1 33.6745 22.1314 0.839638
1 11.5942 13.9195 39.9139
1 13.1644 9.01256 16.2613
1 47.7683 28.358 33.478
1 19.6099 36.3726 31.7973
1 4.25382 32.0452 35.677
1 14.9852 23.9443 0.487728
1 36.6625 26.7572 6.92154
1 9.6326 13.6589 18.7205
1 14.2648 2.12747 8.81318
1 42.7927 10.964 23.7985
1 23.6417 17.1517 37.7658
1 42.6248 47.6219 49.6467
1 26.6418 1.13415 27.736
1 23.258 35.3485 48.5865
1 32.238 5.69827 18.175
1 2.27445 29.1963 9.05121
1 0.189158 5.55422 16.0756
1 28.6019 41.8891 8.40203
1 10.8394 7.91074 16.2487
1 6.96873 46.4838 9.53256
1 12.6456 10.3807 18.9102
1 45.8714 22.8973 7.6177
1 26.899 30.5563 14.9249
1 0.946485 16.7384 19.1763
1 9.14618 49.4907 31.1642
1 39.5309 17.2351 35.7352
1 35.0887 12.7779 5.24657
1 2.63353 42.5605 29.4909
1 15.6379 45.6752 17.2237
1 35.6839 36.037 3.3995
1 14.8552 19.0745 0.247212
1 45.7957 23.051 26.4689
1 12.5416 26.5671 26.3819
1 18.8971 42.9971 28.9136
1 38.624 44.1744 17.6095
1 4.43767 23.3615 19.1784
1 1.4098 16.303 43.5127
1 22.3677 30.8616 33.5627
1 35.463 6.83759 46.0578
1 13.7808 32.7228 49.2449
1 25.8192 35.6792 23.6647
1 21.6586 25.5939 14.4697
1 44.1307 27.397 31.1551
1 3.48085 13.3354 31.7866
1 29.4795 35.8992 35.4165
1 10.7753 34.703 41.3178
1 20.1694 4.67488 15.9723
1 39.6931 32.4039 30.4373
1 39.5815 34.7507 35.0504
1 20.5198 27.7757 11.0739
1 42.5347 25.5818 43.4503
1 38.3373 4.48268 41.4533
1 6.07893 12.2581 26.8468
1 17.2065 44.4276 0.0663973
1 42.1724 3.53351 12.6688
1 13.9902 49.0644 4.19694
1 46.3721 6.11 0.333504
1 24.1028 31.4514 0.478157
1 28.5401 3.35611 31.3968
1 30.2827 16.7077 21.3575
1 48.9841 8.54198 0.699355
1 8.71541 1.01963 33.6796
1 21.0364 7.86701 49.4873
1 43.0268 29.3585 41.7762
1 3.77611 31.3942 39.391
1 42.5012 21.9526 40.6713
1 49.6388 47.6699 16.1933
1 10.9019 39.5302 48.6
1 40.6494 44.8358 24.3952
1 4.45268 22.8086 31.6531
1 20.9291 42.0917 5.42203
1 10.7589 25.8703 18.1457
1 30.1865 47.4741 22.7867
1 31.5155 19.0012 31.6161
1 30.4092 46.1071 37.9843
1 8.02047 12.807 45.9947
1 13.3646 25.83 9.72141
1 48.4797 33.0853 0.189315
1 42.9368 0.874253 18.8445
1 44.8064 2.61207 26.2162
1 32.0998 3.84587 28.497
1 16.3859 49.6911 12.1949
1 14.7089 31.9894 16.0087
1 37.5092 43.2232 31.654
1 45.3432 28.5458 9.07807
1 2.46516 6.03283 6.52923
1 29.9759 27.4263 25.8054
1 42.4106 12.4226 19.7299
1 12.6175 48.4095 41.5446
1 13.5624 19.6779 15.6357
1 45.3068 12.6582 16.6153
1 6.37002 27.2734 34.5846
1 16.9015 36.0957 15.9113
1 4.50041 31.836 8.81176
1 46.5265 27.267 43.7776
1 36.81 20.4968 7.20357
1 47.668 32.5299 5.34249
1 22.2834 15.4407 16.3708
1 4.49841 48.9259 38.3505
1 34.2451 25.0598 16.2993
1 36.201 40.0748 15.0907
1 29.4794 8.93905 9.55935
1 12.5119 48.8812 14.655
1 43.161 6.13453 8.80025
1 45.1722 14.6169 24.8509
1 40.4684 9.2775 23.9459
1 39.7349 40.6155 0.218823
1 14.5701 36.5496 8.21025
1 14.7482 43.638 29.0831
1 4.69283 47.583 12.6115
1 37.275 44.3045 33.7764
1 17.7864 20.9764 1.61737
1 45.1243 40.004 23.4406
1 24.9982 10.3675 41.7785
1 43.9462 37.0731 13.1979
1 16.7435 9.11722 0.130972
1 38.0826 19.2481 44.3041
1 10.9978 4.0697 18.5957
1 31.6118 27.5816 14.6762
1 27.4739 16.2827 7.15711
1 14.7401 3.97209 27.479
1 48.2405 27.164 25.3372
1 24.1222 7.03202 23.4877
1 25.3548 28.6533 44.4106
1 10.3358 38.5205 19.8148
1 39.3522 29.7392 30.7409
1 36.6504 25.3904 3.86954
1 26.3792 0.197404 21.4905
1 12.4035 15.3469 7.43693
1 13.6954 35.8298 18.2929
1 24.406 28.136 36.9001
1 28.2063 39.252 2.33752
1 3.9604 49.5598 10.7547
1 25.7853 43.2256 3.64386
1 44.831 2.45585 21.0216
1 40.0668 27.9938 23.7335
1 5.90952 27.6781 46.381
1 13.5535 20.0031 9.45812
1 29.2756 44.3443 42.2487
1 28.369 0.569949 22.9257
1 40.1867 34.5983 47.1053
1 9.12379 42.8403 28.8408
1 44.9497 29.8825 40.2602
1 19.2854 28.9699 47.0739
1 27.2584 22.1007 27.2677
1 7.83813 46.7888 37.3297
1 16.2965 36.911 43.9951
1 47.1165 16.3223 38.9875
1 38.8907 35.0793 9.23499
1 12.4444 18.6649 21.8254
1 14.4353 40.8923 1.41186
1 2.47305 37.6391 3.91942
1 9.5696 25.5557 20.5396
1 1.69639 27.9523 41.4425
1 15.3747 15.7402 2.82128
1 43.3716 34.6468 16.7064
1 8.57473 46.3487 18.9924
1 47.5809 11.2126 24.502
1 13.1421 25.2814 17.2502
1 36.2654 25.3915 22.1182
1 14.2791 17.4724 7.93718
1 26.4787 37.8944 14.8823
1 5.8625 23.2736 8.65695
1 16.7703 22.0943 7.22388
1 5.3109 36.4031 34.7912
1 29.4823 30.7485 17.7355
1 41.0181 24.74 37.9375
1 35.7205 40.0418 6.0115
1 27.0567 3.47252 49.0279
1 38.875 48.2699 28.1398
1 11.6008 6.3101 14.0959
1 33.4869 33.7501 47.2422
1 14.4511 5.75826 22.8634
1 19.3793 9.88037 23.4604
1 15.7797 3.27283 43.5926
1 34.0447 7.57372 48.1838
1 6.69166 43.1311 7.04134
1 10.7734 28.6291 26.638
1 2.54516 2.82771 15.3116
1 8.09767 10.1356 40.0097
1 27.1713 20.055 34.6004
1 35.9081 31.9482 6.48125
1 1.33754 32.0624 0.935925
1 25.1308 19.9426 24.0925
1 34.4743 3.10179 48.0056
1 42.4155 30.4443 0.13273
1 0.105174 48.6292 46.196
1 48.1833 40.814 14.9099
1 35.5387 33.942 29.7481
1 49.1134 44.488 42.1381
1 36.9407 26.193 29.7542
1 3.14689 37.8929 29.8502
1 48.1918 10.7915 18.4031
1 44.4303 42.837 35.4096
1 19.8991 21.3252 14.8627
1 0.489633 1.62111 46.4475
1 0.707436 20.9558 44.7051
1 5.99971 17.0997 10.7325
1 46.5128 21.3994 16.1276
1 5.99721 11.31 13.6596
1 38.7639 49.1002 21.7451
1 35.5633 4.68268 25.2742
1 9.42243 45.8774 21.6365
1 7.89055 28.3442 23.2573
1 4.83516 28.6832 14.9629
1 12.0525 14.5526 32.9044
1 27.4242 31.71 29.4134
1 47.4182 21.91 23.6487
1 26.5666 2.91153 11.7862
1 33.5496 43.6437 25.3486
1 17.6451 14.4624 20.4905
1 36.743 33.4737 22.0657
1 31.1912 17.6064 4.94233
1 6.85937 36.6169 30.2529
1 27.6716 36.9797 32.7482
1 0.112379 19.6766 25.307
1 5.33973 0.154277 26.9194
1 2.05991 12.0914 11.195
1 28.7266 43.2321 44.8279
1 2.25524 13.9977 29.2547
1 32.3675 23.6233 28.9673
1 34.938 45.5187 46.121
1 33.9487 32.9143 19.3962
1 12.7532 2.63087 6.47241
1 48.3767 40.7968 43.0315
1 22.2486 39.7729 32.5642
1 33.3168 12.2252 20.1732
1 41.9291 38.1474 2.82141
1 10.2091 45.235 25.9249
1 26.7844 26.1079 34.157
1 6.68779 9.61588 9.64632
1 31.6836 20.3207 26.9119
1 35.885 41.627 37.1916
1 43.8046 39.4315 20.7308
1 48.4888 34.7215 21.4692
1 19.8455 21.2764 27.5019
1 37.0845 27.6892 23.7294
1 48.0816 29.5502 43.8379
1 42.816 42.3749 22.8741
1 41.1106 0.668914 9.36043
1 25.0626 2.79807 21.2727
1 37.4934 37.6153 43.2626
1 39.0025 5.10572 7.31011
1 7.50177 35.4194 7.6566
1 44.8826 4.80288 37.4903
1 47.489 29.3945 0.943589
1 22.6272 47.1391 18.2688
1 12.2217 8.52531 20.8889
1 31.5335 45.5513 0.912125
1 19.4253 18.0778 17.8931
1 13.2521 30.6417 42.6906
1 36.8079 13.3202 44.5742
1 48.4331 31.0451 25.7742
1 45.7339 25.3038 17.0124
1 17.8102 47.6016 13.5837
1 12.335 19.3521 24.4285
1 30.6798 6.41326 23.7764
1 4.09198 29.1847 41.0544
1 6.02426 26.4351 18.8816
1 9.49007 24.6359 25.2189
1 31.3448 43.9205 48.1551
1 41.5334 10.9594 0.300955
1 20.3006 1.41396 5.65042
1 5.59015 8.5291 24.6013
1 8.05216 1.8155 38.0709
1 35.9869 30.558 0.679048
1 6.69897 25.5346 0.722892
1 7.54643 21.7595 26.7917
1 21.8008 17.7242 39.6622
1 12.217 41.2795 12.1871
1 45.5777 11.1091 22.1206
1 10.2939 27.5955 14.5818
1 15.3091 41.1948 35.5032
1 15.6574 46.3229 28.2942
1 4.47362 12.1844 3.94796
1 3.86714 6.55304 30.7807
1 44.3003 24.856 6.39739
1 29.7672 34.7637 47.6067
1 10.5117 0.852204 7.34498
1 11.1873 26.704 37.17
1 1.43192 33.9868 22.0697
1 33.2508 10.0645 27.1867
1 43.1864 22.8183 49.3874
1 7.80259 42.7903 13.4729
1 24.4846 1.77824 29.7036
1 15.2458 37.6435 37.12
1 13.6885 47.6489 20.6364
1 23.9219 24.3913 11.2185
1 44.9003 32.882 3.04365
1 25.4834 35.0272 29.4729
1 8.24675 49.215 36.135
1 30.5916 37.9648 16.9565
1 16.0546 9.55783 12.8655
1 8.81252 2.93132 15.8897
1 37.3861 15.8367 19.382
1 41.3396 49.3339 25.1113
1 38.8061 18.1746 26.1631
1 48.9367 40.8204 48.0077
1 22.8181 15.6293 47.4039
1 31.1891 28.0448 29.3514
1 44.6915 6.63571 33.6124
1 6.73557 1.02439 4.90341
1 40.3278 1.26184 20.4559
1 1.54004 0.885463 23.3496
1 19.5825 41.0104 16.8566
1 35.3684 14.1821 33.7323
1 12.3418 44.5272 15.5382
1 14.8686 31.8636 6.18597
1 4.70438 33.016 17.3531
1 3.31091 1.72044 7.17905
1 18.6322 45.1082 45.1137
1 44.0828 24.0137 15.2907
1 30.4556 8.8048 21.1087
1 10.2615 33.7129 22.8345
1 32.781 2.50976 12.9972
1 14.1066 41.351 8.87155
1 38.9133 34.0858 6.50943
1 30.0206 49.7125 46.2241
1 28.8494 8.53439 18.868
1 18.8726 29.4422 8.53646
1 47.9263 36.6606 41.4806
1 46.6409 47.7083 34.6821
1 34.5974 22.8885 37.1903
1 14.1028 37.9799 24.0095
1 33.2354 32.3839 39.5428
1 13.0492 15.1251 37.9023
1 1.40614 16.936 32.6575
1 8.89328 29.4285 8.49524
1 22.678 32.0785 35.9841
1 41.7091 11.3729 36.8624
1 2.43572 5.49556 41.6276
1 25.9038 41.1663 33.1199
1 40.7598 28.4808 37.7651
1 33.3705 25.15 6.84791
1 23.6844 21.9372 43.4757
1 31.5343 13.5028 34.6388
1 21.431 2.6591 33.5593
1 5.18085 23.5358 4.39516
1 35.6014 49.2265 24.8949
1 47.0501 32.623 28.8656
1 19.1605 5.20462 42.2495
1 42.284 49.0412 7.6732
1 26.235 39.3682 24.1317
1 2.20268 32.7014 16.206
1 26.4044 41.8603 45.1577
1 7.90003 26.3308 16.2968
1 10.3172 40.974 24.3759
1 45.457 13.1552 1.00317
1 24.9239 24.9272 6.49821
1 15.3075 30.8349 41.4891
1 33.8949 47.8482 46.6378
1 21.4484 36.392 46.7249
1 6.27935 31.8032 3.94606
1 36.4286 4.68475 47.6706
1 21.3619 27.2015 32.5452
1 46.1031 5.0687 5.7588
1 7.33375 23.9084 36.3126
1 9.80474 1.26503 44.2331
1 4.54111 2.2089 25.2713
1 8.41418 41.8582 20.4513
1 46.3411 0.735606 49.3153
1 41.5712 21.9637 33.9363
1 5.71057 12.8707 23.9477
1 10.2535 13.6895 26.7308
1 27.2063 43.1214 31.9442