4096
 Atoms. Timestep: 860
1 4.66697 29.5888 17.4231
1 28.9225 15.456 9.90722
1 35.6615 2.55952 31.0232
1 23.1651 40.9031 10.1908
1 47.5162 14.1088 23.5859
1 15.9554 46.8197 37.7788
1 26.2982 36.1232 5.14742
1 34.7856 43.2411 17.4438
1 0.966669 44.6062 40.2075
1 40.4056 1.28781 25.4214
1 27.6447 13.4248 2.71707
1 39.7016 46.4253 34.7752
1 12.3482 49.818 5.31825
1 3.39592 16.7773 26.4906
1 32.4849 29.1253 5.89479
1 23.7716 5.6208 16.9451
1 38.3183 5.89474 41.3774
1 3.394 24.6796 4.83472
1 16.785 12.2027 17.2495
1 7.77394 23.5025 8.08656
1 40.563 11.5693 6.54896
1 12.8988 27.4353 14.0739
1 4.29874 35.4079 39.4114
1 48.6029 18.1684 21.8194
1 14.0764 10.733 41.0278
1 47.7966 33.0145 16.0876
1 4.76099 8.85518 16.6134
1 17.0634 14.9486 19.3609
1 9.86086 12.3356 30.0257
1 2.8044 44.9567 46.6825
1 34.3317 44.52 43.8813
1 5.31253 49.3299 14.8248
1 36.7721 1.99322 9.04467
1 6.12063 26.9999 15.4371
1 27.6472 47.9294 44.6535
1 8.70241 41.3998 21.4702
1 11.1952 15.1307 4.5239
1 20.3116 30.4738 37.7178
1 2.68832 32.4238 9.07441
1 37.3972 11.6831 20.0647
1 29.1139 37.5175 32.0004
1 36.808 28.2245 21.972
1 3.53284 37.3085 14.2158
1 37.7928 37.6031 47.561
1 5.4488 5.6237 13.8742
1 15.0528 28.0093 37.571
1 37.0934 26.8131 30.4475
1 4.44875 31.4424 13.1242
1 6.12714 49.4546 26.0687
1 14.8693 36.7613 10.6134
1 8.46155 5.38692 21.1034
1 31.4811 12.1813 47.4377
1 12.4942 15.118 34.9632
1 10.3032 25.5229 43.4261
1 38.5496 20.4789 3.63668
1 33.5977 30.6072 32.95
1 28.6615 16.8152 12.7017
1 45.343 48.3566 36.8441
1 33.0239 4.60376 49.5969
1 19.977 20.7981 7.83288
1 32.0574 30.3586 35.5622
1 9.50528 42.336 36.6792
1 47.2574 44.7474 2.15051
1 8.89489 13.5847 44.9839
1 42.8412 49.5984 6.25796
1 7.93894 1.63707 20.3579
1 38.4364 9.17981 46.1061
1 41.0373 9.36371 17.5304
1 20.1569 19.8825 39.7454
1 42.344 18.2007 5.66666
1 25.9595 0.618484 29.7929
1 28.1048 24.8664 26.6615
1 16.3535 5.79847 25.0053
1 31.7674 38.1946 6.26196
1 27.3763 1.2019 23.7546
1 12.0428 1.57778 30.6113
1 42.5296 31.3609 4.92466
1 16.7365 35.8126 24.5616
1 27.9794 23.2986 17.3788
1 1.48594 23.4264 6.33527
1 37.5715 6.53139 45.8184
1 32.8086 6.04285 30.6402
1 13.9159 7.00829 9.61604
1 0.0682314 45.2166 13.6104
1 26.6666 15.7956 15.396
1 22.578 47.9995 40.186
1 21.5081 44.061 12.2868
1 9.19882 38.221 3.61923
1 4.56088 17.559 13.1212
1 41.5905 42.4235 33.9962
1 24.6636 2.74338 28.749
1 7.72538 34.9785 12.5882
1 39.2521 2.83159 49.1695
1 31.6392 3.30197 18.9309
1 15.5764 10.4862 26.014
1 49.2115 13.5938 17.2823
1 19.7581 1.19094 36.4366
1 16.2847 47.1916 48.1999
1 19.5542 3.62952 1.11529
1 7.98558 36.1745 41.2623
1 32.9178 20.9365 30.783
1 23.8051 16.5699 49.4033
1 22.913 22.3963 5.44794
1 16.5047 36.1163 19.9178
1 6.26969 48.6953 17.5838
1 39.5789 32.062 23.4325
1 45.1531 16.0505 10.7402
1 6.27555 7.62107 2.50316
1 35.159 11.3236 42.1039
1 9.511 42.7659 43.8998
1 35.2422 39.4947 21.2483
1 18.7259 42.9436 18.0695
1 30.0809 30.0796 28.4843
1 2.0368 35.7887 43.3505
1 31.9094 22.8757 9.19381
1 28.9913 22.9398 8.18231
1 23.9299 24.8018 41.3526
1 41.355 3.56065 32.7509
1 47.1669 25.607 29.4086
1 18.1319 46.7358 15.2049
1 14.7603 24.4627 0.652521
1 34.6619 12.1714 15.9661
1 42.387 13.4077 38.8211
1 21.4103 37.7827 4.70195
1 14.4966 1.65432 31.79
1 43.9116 21.5669 21.8513
1 33.7101 35.8454 31.2598
1 0.0890506 16.0872 10.2068
1 31.3698 2.36716 41.5184
1 39.7206 9.84304 3.31336
1 12.31 39.2017 20.8356
1 36.1635 24.3 26.9799
1 17.8956 4.63393 3.15195
1 18.0657 37.6205 10.6543
1 2.844 9.60608 29.333
1 46.3141 36.3494 9.88143
1 5.72714 18.629 6.66539
1 20.7126 42.4772 22.0777
1 39.5468 6.5594 34.9891
1 48.342 34.9597 18.2533
1 22.9958 13.5941 40.8163
1 30.1608 33.0126 28.4822
1 19.1109 12.1622 46.8369
1 31.0702 -0.015967 11.3613
1 48.3615 28.9642 22.0998
1 1.1392 43.2899 17.3733
1 3.90683 12.4755 5.44797
1 39.9306 46.3658 44.9638
1 15.8457 18.4225 45.6494
1 43.896 24.8061 7.33812
1 11.6295 22.0739 1.03025
1 39.0295 47.9453 19.2536
1 15.0693 22.5478 26.4495
1 2.42666 47.0529 31.7514
1 5.0401 26.1024 19.2841
1 48.6189 49.0373 11.8977
1 35.9141 8.07786 33.0487
1 19.7587 6.84956 22.3959
1 35.3696 47.5087 2.92436
1 39.8986 13.8369 0.754158
1 32.695 1.56548 45.9947
1 14.843 5.69662 7.2827
1 47.7308 15.8619 34.3277
1 32.6615 16.0457 8.32616
1 37.2216 5.96262 10.8155
1 46.3814 0.221047 9.25803
1 30.1608 15.6747 14.4619
1 39.7399 31.128 26.01
1 34.0625 38.7983 10.8527
1 21.8674 12.9114 47.5152
1 35.1805 7.86243 20.5949
1 33.5267 32.5284 42.0991
1 10.7571 7.84674 25.2691
1 30.1217 27.2951 41.8978
1 31.2306 35.7549 15.5848
1 23.3765 40.6278 0.760127
1 8.41701 9.39454 2.30851
1 24.1774 48.0463 30.1319
1 18.4544 31.0366 31.0345
1 10.4727 33.8676 38.2476
1 47.3286 21.8265 23.7778
1 13.7651 7.78422 4.10429
1 31.6753 40.7236 28.9195
1 11.5337 26.3764 48.9555
1 13.1542 1.41257 36.7028
1 29.5598 19.8921 32.3117
1 24.1627 9.86041 33.385
1 6.25794 31.9125 17.2867
1 32.6438 45.7822 39.1083
1 9.10502 1.63721 5.55579
1 0.169688 33.7141 38.0474
1 15.7202 32.4063 36.8949
1 32.4052 26.9625 43.6108
1 8.86028 45.264 0.0186857
1 47.6871 7.65435 20.9704
1 27.7251 1.24309 43.6973
1 1.98888 7.13489 9.91605
1 33.9087 25.3581 15.6843
1 30.7953 23.6528 29.3803
1 2.642 18.0389 24.179
1 22.2453 14.8978 22.9757
1 14.0338 13.9968 4.53649
1 7.15102 16.0435 15.6081
1 48.5329 9.60885 19.5831
1 44.2818 9.73015 46.2196
1 12.9987 45.1912 15.4807
1 18.8428 14.0354 6.87035
1 42.2572 34.7408 10.557
1 24.2699 0.804445 11.9108
1 25.5439 27.6801 23.7837
1 40.3983 44.402 26.5416
1 39.4357 44.0853 21.9885
1 36.842 19.8794 38.8798
1 5.90341 42.1566 48.8762
1 18.6986 35.5007 14.4171
1 49.7688 6.25213 22.1617
1 11.3853 32.431 28.2832
1 29.4045 37.035 22.0173
1 5.04892 10.426 4.24998
1 48.8543 2.75601 3.46845
1 20.4472 44.9504 14.8278
1 10.5035 43.412 2.99012
1 33.0573 10.3455 1.22296
1 16.9944 5.46149 44.3995
1 28.6944 32.8336 13.3971
1 19.1096 19.5674 9.97644
1 29.2516 24.5169 32.6623
1 0.927039 15.4204 18.4132
1 18.0263 13.0689 1.38919
1 24.307 41.0318 47.9108
1 22.8949 26.5634 8.10813
1 27.1672 40.3369 10.425
1 23.7873 27.5772 15.0302
1 22.673 5.81111 24.9415
1 32.7935 13.8883 41.4057
1 30.8925 38.5577 17.5438
1 11.0114 18.7529 33.0425
1 0.511878 7.3112 4.30317
1 48.3196 21.3096 4.16704
1 44.6572 28.7266 41.2809
1 34.3887 18.3388 11.7059
1 20.1279 42.1445 39.0583
1 26.7074 20.6323 32.8881
1 0.187957 11.8099 13.7257
1 16.179 41.0666 44.5276
1 8.61373 16.1625 23.8928
1 20.0821 36.5508 22.1364
1 16.1214 34.0584 45.7825
1 38.8378 4.79622 6.12802
1 24.5682 7.28272 23.2665
1 41.1664 38.0315 1.47537
1 20.2511 19.4592 47.01
1 35.5971 46.0454 19.8119
1 25.58 13.5221 39.5827
1 9.31416 12.9528 18.7517
1 10.2421 39.8903 49.5625
1 43.1178 17.0446 21.6076
1 47.8908 12.766 10.6427
1 43.9924 27.3539 43.9461
1 47.2574 46.7293 40.4579
1 20.4184 16.2294 21.638
1 15.3546 16.624 1.01863
1 35.2814 49.4048 35.0381
1 49.3792 13.3622 42.8664
1 46.0012 46.8976 14.1565
1 5.61248 -0.0360985 21.5033
1 23.1342 16.5112 8.60629
1 17.1036 36.868 42.4131
1 13.505 45.2817 11.8269
1 43.8056 31.0718 33.5426
1 12.3067 40.3553 23.5792
1 36.4488 20.3551 25.0491
1 43.6289 41.9964 5.10196
1 11.4617 17.4376 8.00203
1 14.3708 30.3775 3.1682
1 0.727299 27.9274 5.20856
1 0.962536 39.7767 34.0005
1 33.0868 20.1822 37.1071
1 32.5752 46.6574 44.5804
1 -0.116932 47.2658 40.7195
1 20.7036 7.63116 49.4361
1 15.3723 24.5239 15.6493
1 47.7927 4.41134 45.7092
1 13.5907 23.6112 28.8194
1 19.5665 0.325478 12.4254
1 14.2781 19.6959 11.2439
1 14.8794 13.0768 2.20735
1 44.4634 42.1946 27.2621
1 1.85216 28.8858 20.7033
1 30.1057 26.6117 25.8073
1 40.2709 19.1289 41.8973
1 3.16918 25.801 46.8304
1 41.6409 21.8026 35.2127
1 6.26784 40.7084 42.0248
1 38.5661 14.2158 41.6131
1 36.4207 30.6409 1.36327
1 41.9995 13.1224 8.61583
1 31.2482 26.8453 39.3776
1 42.9416 19.734 26.3867
1 26.1744 7.79821 43.7128
1 2.30044 35.2023 10.926
1 12.0997 33.8655 9.84104
1 30.0481 43.1882 17.6774
1 23.759 9.13954 26.9813
1 49.8015 1.49316 39.6755
1 39.8393 19.7536 9.28379
1 10.788 4.32311 18.5837
1 46.8511 8.32312 16.1864
1 7.77895 9.21391 13.4152
1 17.5516 26.0205 40.8155
1 10.5163 32.9677 31.2723
1 40.086 15.716 48.7016
1 5.45098 45.0884 37.6652
1 41.5993 47.3972 12.0302
1 44.2209 29.7452 25.1107
1 43.1024 34.0895 43.3266
1 34.002 5.02149 47.2937
1 4.34127 15.2049 9.46655
1 35.3426 13.5843 40.7347
1 19.3496 2.53338 27.5006
1 47.4012 18.0714 10.5448
1 33.051 25.5056 5.4432
1 41.0961 28.2259 37.2342
1 8.18508 42.8645 30.0532
1 9.79543 48.569 28.7635
1 0.0926598 31.1462 39.2919
1 4.02321 36.54 35.1911
1 1.987 15.8446 40.0838
1 40.9244 15.2434 14.6772
1 49.6464 3.16794 0.945551
1 33.2641 34.5048 22.7631
1 17.904 13.347 10.9657
1 14.542 40.5135 20.0078
1 31.7911 47.6307 28.182
1 42.3613 16.2999 10.2988
1 30.5457 39.7186 9.26502
1 42.075 37.6005 32.2198
1 46.1959 2.62446 47.1996
1 4.49455 42.089 32.4935
1 2.97223 5.7305 33.1707
1 11.857 1.93003 26.7083
1 44.1953 22.6085 34.2604
1 3.34227 25.2574 44.0028
1 44.3982 5.11924 35.9103
1 36.7755 14.3177 38.2086
1 10.2202 16.2069 12.6838
1 0.279579 11.7656 24.3177
1 48.0602 7.95298 40.2339
1 29.4186 30.1417 36.3532
1 35.0994 17.0018 9.51341
1 18.7763 6.4383 8.72861
1 38.5853 16.9575 3.14044
1 45.2826 32.2477 9.72068
1 20.1377 21.5929 45.2152
1 3.15265 30.6853 39.195
1 41.6481 27.3804 30.2036
1 2.97935 12.5191 32.5898
1 11.2295 5.48653 8.86566
1 1.5318 7.63699 23.7095
1 18.3377 4.52456 21.7014
1 17.5125 26.2368 17.1577
1 0.862597 38.3117 31.5107
1 21.8555 5.01572 0.614029
1 16.9694 24.4871 45.2483
1 45.4001 39.7266 22.8857
1 18.1411 27.6224 36.4607
1 13.9314 6.13952 12.209
1 30.5823 14.3485 23.1194
1 14.5841 16.9074 17.87
1 4.46779 15.2058 29.751
1 46.3067 47.8854 16.8103
1 37.7436 12.3858 46.6978
1 11.3514 0.184758 12.8603
1 29.5075 13.4868 48.9952
1 45.5984 34.5618 39.7396
1 39.9289 38.1107 21.5544
1 6.62888 34.3267 10.3624
1 36.8902 41.3147 1.37757
1 15.1538 14.2346 7.70644
1 11.6238 18.0602 44.5194
1 13.9411 14.4699 29.0613
1 49.2626 41.6536 45.3583
1 49.6154 36.1924 32.7071
1 1.4729 47.5621 11.4466
1 34.0375 44.9356 0.223341
1 7.33303 44.365 39.5613
1 16.8517 23.6222 7.32755
1 37.5503 14.3727 29.747
1 16.7884 8.11153 36.7733
1 33.391 42.4083 11.28
1 9.44037 14.3402 47.7506
1 14.8139 14.1105 16.3041
1 4.24845 28.695 24.5612
1 40.9412 25.5942 28.1417
1 0.566871 48.7952 38.5231
1 23.4397 4.81933 32.8334
1 20.8338 34.9601 32.5016
1 23.4727 23.71 2.64786
1 46.9984 16.0232 0.968811
1 40.4576 10.1193 40.7627
1 41.548 35.3353 49.577
1 10.2704 16.5313 28.2961
1 26.6097 3.21357 19.7922
1 15.7626 27.9503 2.31861
1 5.17721 44.5679 2.82574
1 11.6204 23.8051 39.6565
1 33.1105 13.7008 26.3597
1 39.6356 41.9636 3.26017
1 17.3094 20.6303 18.4982
1 21.3777 25.1016 33.8652
1 19.0412 30.6263 7.90656
1 4.78651 46.5233 40.2265
1 18.8622 41.7233 9.47107
1 13.3246 44.2025 37.0495
1 38.108 49.2847 25.9028
1 17.7958 2.93045 38.1933
1 32.093 35.1528 24.8062
1 15.0516 24.3378 42.9616
1 4.1088 37.659 4.49091
1 1.04561 10.0941 0.657982
1 9.81928 2.0731 24.2984
1 33.766 3.87631 38.3448
1 26.2627 14.5835 27.7472
1 2.35392 6.87868 28.7824
1 23.2112 27.3741 22.418
1 25.3624 1.97643 3.08295
1 11.0427 10.0332 45.1473
1 12.7688 31.869 31.9047
1 9.81868 41.1767 24.2226
1 49.5969 21.0673 21.998
1 27.8951 8.99998 27.2533
1 35.5836 2.96008 27.3033
1 26.5217 42.3155 34.2143
1 39.7328 35.0348 3.99048
1 37.0018 20.3673 16.7093
1 13.1515 2.58448 1.52945
1 22.4877 24.1446 24.42
1 37.5016 34.8031 21.0573
1 30.5109 2.76919 31.8696
1 14.6234 22.6809 23.1156
1 2.945 41.677 28.7725
1 36.5572 9.57681 6.99882
1 42.8665 8.40269 1.28629
1 27.0071 12.1099 48.3393
1 49.2273 41.3818 38.7968
1 36.3765 18.909 27.4003
1 48.8197 31.501 24.3527
1 6.4969 29.2246 9.25519
1 20.042 8.62005 4.10496
1 30.8622 28.8461 15.7312
1 40.9302 0.543783 22.6263
1 24.225 39.3768 38.6139
1 10.1303 35.4013 29.7942
1 14.6077 12.195 36.8426
1 8.75874 40.4676 28.8613
1 32.7541 11.7108 20.8433
1 19.2968 33.1307 15.4129
1 15.9294 7.01305 15.7311
1 7.6911 10.0016 8.88421
1 34.4771 28.7751 23.1847
1 43.5545 36.3817 38.9303
1 2.50468 22.5137 33.7161
1 7.08966 15.6151 6.16698
1 9.26403 6.1512 32.2178
1 21.7074 9.27449 11.2629
1 33.3735 0.479921 30.7549
1 23.9522 20.2545 21.3858
1 1.13452 49.0799 3.5463
1 15.8576 46.1088 6.0976
1 47.7414 31.6271 47.7152
1 33.0163 34.5923 27.3114
1 26.9931 40.9641 48.135
1 8.21557 31.2597 3.8372
1 25.5961 21.1833 49.4368
1 20.4325 20.2375 23.2466
1 44.2656 10.1683 49.2854
1 10.0214 29.286 15.424
1 43.7459 4.78401 33.1781
1 0.123983 45.4604 16.1633
1 3.07406 8.80332 38.838
1 38.1452 11.5658 1.37001
1 46.3064 20.7984 10.8685
1 32.7688 12.1234 13.6886
1 7.62876 1.13166 39.2575
1 0.449678 5.60875 30.3847
1 20.6806 31.4233 43.4997
1 43.1949 39.6009 27.71
1 15.0986 7.91812 47.6415
1 32.1046 45.2154 22.5347
1 43.1803 29.9125 37.7264
1 9.22524 36.2913 23.8355
1 15.1422 13.1543 33.4924
1 8.85855 32.9793 13.8152
1 24.6755 5.65134 49.3403
1 16.5638 30.1818 47.8109
1 13.0779 30.2028 28.3514
1 13.1854 48.4015 35.6747
1 3.3578 42.9033 40.098
1 48.2835 11.5527 32.5058
1 36.2015 44.8841 46.0289
1 28.1982 0.831797 28.0069
1 4.84731 32.9328 15.408
1 13.0668 12.8626 8.05095
1 16.6111 42.6369 36.3523
1 31.2684 40.7735 21.051
1 3.44893 31.573 46.9998
1 2.47979 37.8388 0.2514
1 1.03672 1.62564 45.8799
1 12.7518 43.2841 44.3216
1 15.3913 38.1352 27.8912
1 17.2444 44.9314 19.0308
1 19.6098 1.02583 33.6177
1 46.691 15.5947 45.2238
1 7.97189 42.9353 34.6604
1 42.9633 14.2355 30.8666
1 1.7385 7.14534 44.8567
1 19.4758 25.8536 38.7355
1 14.1969 44.6183 31.3584
1 48.2567 6.7719 42.7129
1 6.74991 4.64106 45.4803
1 40.4513 27.4889 0.483495
1 24.2833 14.3556 21.0292
1 35.6115 24.3974 18.1616
1 18.7271 22.2058 42.8691
1 4.35669 4.90592 29.6169
1 36.432 42.5075 8.78416
1 22.9513 32.9821 6.08756
1 43.4435 17.3243 30.3943
1 47.0898 10.9677 37.9198
1 36.654 18.891 12.6678
1 37.8647 42.8417 27.7722
1 23.5024 33.7907 1.29012
1 34.1201 30.2205 37.5092
1 21.386 44.1827 42.0844
1 40.6727 21.9694 8.30566
1 38.6149 43.3894 6.67686
1 34.83 7.54766 43.0423
1 47.8338 39.6418 37.6826
1 28.7798 15.5335 17.3135
1 11.7574 4.43143 27.2714
1 40.3387 37.0584 39.5502
1 2.84186 5.11549 40.8031
1 7.28147 43.7627 20.8109
1 34.9527 48.0907 7.9401
1 8.02006 7.06408 28.6008
1 25.7436 33.8589 28.2569
1 36.9883 27.6517 2.46396
1 0.596713 12.2723 34.2231
1 0.951136 15.1283 27.1284
1 7.59241 40.9186 26.0044
1 39.8211 17.854 30.5676
1 26.654 2.45346 26.2899
1 5.95567 25.2587 47.5681
1 6.10952 25.6463 8.58694
1 11.6291 45.5627 23.0548
1 7.39115 45.3084 23.1751
1 37.3996 1.54839 12.7518
1 4.378 8.18274 5.94207
1 4.3732 31.3353 5.72859
1 8.58425 2.79699 41.0043
1 36.7699 44.7126 2.01884
1 0.17455 14.63 47.3827
1 39.1773 25.9679 42.8384
1 32.0769 23.2075 24.3984
1 38.3414 30.4961 21.6797
1 5.0962 30.6238 49.012
1 45.8179 30.3774 13.4539
1 24.1557 46.2268 41.9189
1 2.54179 0.976736 21.965
1 31.9184 17.7053 35.8073
1 44.2229 3.84511 25.3279
1 25.6694 13.9197 43.2788
1 15.8276 49.3261 30.3621
1 12.6314 22.9081 21.3896
1 2.34219 4.17665 26.1915
1 30.9489 35.976 18.4832
1 9.36196 4.03603 38.2766
1 9.52524 33.9183 3.76272
1 47.2418 4.05797 49.3273
1 44.4003 0.837922 35.3985
1 42.9461 40.0255 0.476598
1 42.0695 12.3434 48.9359
1 11.9684 19.6504 48.967
1 49.1068 33.8013 27.7348
1 11.02 17.4488 16.8822
1 21.6798 47.1838 6.43918
1 4.83026 39.6027 40.2441
1 14.2285 0.344389 39.1401
1 24.3346 12.5747 7.51226
1 13.7216 7.14041 37.1503
1 6.52895 21.7913 12.9606
1 3.16983 6.21716 1.79289
1 26.9936 24.0988 3.63452
1 36.5645 33.3149 43.3053
1 40.2276 28.929 13.0623
1 10.6064 45.2102 14.0914
1 46.5253 16.4522 22.2006
1 49.4225 44.2117 24.7581
1 14.3163 34.6906 24.7118
1 48.043 9.85954 13.5749
1 38.7972 23.5052 18.5087
1 26.3562 23.3964 23.7942
1 16.2399 18.985 9.42934
1 9.38603 49.1876 44.3957
1 17.1523 45.474 2.34831
1 45.6759 49.4436 12.4025
1 12.0663 31.3188 23.6989
1 38.7203 1.24613 29.5588
1 11.3702 46.946 44.3508
1 43.4055 35.2406 32.433
1 9.28609 20.5677 40.5148
1 30.444 34.9512 39.5903
1 3.91561 13.1962 14.5132
1 42.7698 5.72028 49.0417
1 13.4005 36.0504 44.6329
1 11.4499 38.0796 11.5841
1 32.5722 6.26685 8.5142
1 47.9588 10.5591 40.6841
1 4.48665 44.003 28.76
1 20.4417 31.8094 29.2336
1 2.95799 46.3155 48.7918
1 30.3375 9.234 6.03684
1 18.184 44.0824 42.1234
1 37.4355 6.32539 29.3329
1 9.33438 42.223 32.4793
1 48.5324 3.72676 22.4591
1 30.7016 27.1301 5.91435
1 7.67964 17.6642 44.91
1 47.5072 24.5593 3.5513
1 28.7808 0.933194 13.5715
1 0.354475 45.7362 30.8356
1 20.7371 10.1811 31.3888
1 14.2358 19.0231 0.637225
1 11.9922 7.31713 14.0351
1 41.0416 48.4168 47.4185
1 46.6676 46.5281 42.8674
1 23.1197 18.3685 6.36161
1 4.50845 40.1653 30.2925
1 46.1692 43.1515 18.5877
1 15.5529 28.3678 44.6419
1 1.10762 42.9145 47.6075
1 4.00713 19.7332 16.4607
1 43.1009 25.4647 42.174
1 8.35452 4.10148 25.3532
1 0.601036 48.6584 16.6455
1 46.2964 6.88051 5.51104
1 23.2202 37.2314 40.03
1 5.29321 8.11425 24.4171
1 47.1796 16.1268 5.88993
1 19.4125 41.1683 46.526
1 39.9303 18.5718 6.84767
1 11.3659 1.04063 43.6774
1 9.61526 19.3854 20.4408
1 24.4841 13.625 48.5327
1 33.558 27.9423 39.6347
1 42.052 13.7042 24.3704
1 7.72653 37.6261 37.4918
1 38.0332 12.7471 25.4565
1 2.47587 8.44229 33.8253
1 18.5137 48.8861 20.855
1 37.5658 45.7276 26.8893
1 13.5362 16.4069 21.293
1 2.94036 14.2613 36.3419
1 43.4288 7.44764 4.9167
1 9.76125 29.2773 30.7002
1 30.6349 38.0554 39.8075
1 27.479 42.8414 22.925
1 13.9512 46.042 7.99239
1 31.8857 8.18344 34.3943
1 47.9579 42.5709 40.8769
1 26.4974 6.20938 30.8872
1 23.832 32.4207 47.2047
1 7.55756 13.2353 2.79632
1 15.988 11.635 39.2144
1 7.20942 46.8024 3.15326
1 33.5644 33.9526 33.4997
1 19.3866 13.7683 35.9324
1 29.3675 45.7211 22.2719
1 23.6226 31.0568 34.1933
1 14.1361 44.7099 21.5669
1 23.9352 6.33693 8.57007
1 19.0219 15.5977 0.323889
1 47.9034 40.6746 16.0003
1 38.2273 30.6633 13.8839
1 11.0974 24.1557 26.0744
1 46.7554 29.1241 3.16733
1 46.8549 19.898 43.7324
1 3.12042 9.28307 14.0108
1 33.7591 44.9694 36.5847
1 24.0456 45.3212 12.6672
1 28.025 38.1071 38.1965
1 41.3697 40.625 20.9303
1 22.8692 36.1383 2.62216
1 29.4653 13.8018 45.3469
1 26.0005 34.3373 9.67447
1 6.57249 12.6534 35.3189
1 9.04644 42.6621 46.5946
1 5.28695 18.7645 3.94426
1 8.37529 33.5318 16.5089
1 0.885803 28.2537 9.32897
1 8.38442 0.365917 17.9121
1 42.7969 44.2044 20.9052
1 48.984 8.47609 6.80006
1 42.2407 32 19.3268
1 13.0763 26.2073 36.5062
1 22.1085 22.2021 1.01222
1 24.2224 3.33881 13.3362
1 16.59 23.1807 4.5514
1 3.47932 47.3203 9.06634
1 5.45502 40.4319 13.4117
1 26.2025 23.7497 7.35862
1 49.6734 21.4133 16.5971
1 32.7476 27.7491 34.6122
1 23.1092 39.5142 46.2063
1 16.3916 18.9929 48.2986
1 1.86448 7.0618 16.6916
1 33.5055 10.8745 35.8324
1 21.3314 47.7223 14.825
1 47.5473 12.985 19.5527
1 37.8967 34.9264 13.1101
1 22.0016 25.8887 31.2594
1 43.0705 23.2064 11.9858
1 37.8862 8.12852 17.5145
1 35.8584 20.1857 43.2514
1 0.40784 17.0237 28.9616
1 47.8692 46.2711 12.1904
1 9.54718 30.4252 40.5388
1 7.38199 33.538 7.15173
1 17.3558 12.4721 8.67506
1 31.3354 13.0716 18.8024
1 9.57756 21.0601 33.7316
1 20.1971 42.2458 31.2728
1 45.4415 34.6164 18.0422
1 42.8441 6.39224 20.6893
1 32.7419 40.0874 39.495
1 5.81055 2.46968 37.2521
1 33.1059 32.1505 47.6765
1 0.595796 25.0388 37.9976
1 20.4645 46.2537 47.657
1 24.0387 48.5621 25.18
1 44.3678 5.0008 40.2306
1 32.3078 38.45 27.661
1 5.88348 20.3118 36.1725
1 30.7656 23.3612 17.8084
1 37.5192 28.4336 34.9803
1 36.3277 30.1407 48.5275
1 12.4523 24.8869 16.2659
1 25.5234 27.7618 34.6432
1 32.2946 14.0763 2.45644
1 15.129 2.63143 26.815
1 34.6856 29.9812 16.8769
1 0.439605 12.4237 8.4181
1 4.42453 1.19131 11.7008
1 4.54944 28.8022 20.073
1 26.2492 0.86885 36.7761
1 9.1283 7.09586 7.54334
1 27.061 34.92 41.2322
1 21.1405 4.15568 5.04269
1 33.712 1.10587 2.73917
1 21.1472 12.7585 4.51473
1 27.8179 4.65759 17.7655
1 10.6996 20.5322 8.5634
1 10.9384 7.03289 20.4515
1 35.1959 7.83341 23.585
1 41.5702 11.22 13.9964
1 22.3519 32.1516 11.0793
1 43.9016 12.8194 16.5074
1 18.5888 23.6851 2.90081
1 39.7786 19.5166 15.815
1 26.3112 11.805 30.0679
1 16.0157 5.80447 38.4701
1 45.1576 32.0256 18.7836
1 27.3021 44.7797 0.100399
1 9.94188 40.0544 46.8888
1 6.82104 37.2732 23.6259
1 41.6697 28.5427 4.33482
1 6.14354 34.6387 49.7559
1 48.104 5.66846 26.3245
1 5.56924 39.8984 10.4863
1 29.3582 30.2135 44.3988
1 40.0985 43.4869 10.6807
1 13.9494 31.9564 0.851989
1 9.34347 28.8165 2.90791
1 22.933 21.6224 16.7862
1 34.4166 10.4183 12.3052
1 9.97624 2.87691 21.7515
1 39.9502 24.4826 1.50339
1 4.34931 23.6207 9.49838
1 45.5915 27.1703 48.2743
1 26.0782 44.4441 32.2866
1 42.9687 18.6735 42.6139
1 31.2736 40.6795 47.6106
1 49.2924 22.0014 25.6952
1 11.6485 47.952 7.40269
1 33.0544 29.5626 19.2501
1 39.8517 40.5254 39.5912
1 47.8183 18.5432 35.0945
1 6.85449 45.2027 43.2703
1 20.0724 24.4203 20.3795
1 5.45814 47.1419 20.0842
1 13.3169 11.5913 29.0854
1 37.6427 2.0324 16.8983
1 36.3129 15.5252 7.35748
1 13.9058 3.51012 12.3628
1 5.84295 5.52443 4.41843
1 0.641259 13.3313 39.7695
1 4.08503 8.39988 36.4574
1 6.28007 11.3931 49.015
1 24.0642 38.7706 19.441
1 34.6122 20.8988 0.0850989
1 18.6724 36.8481 4.33126
1 39.7527 28.9995 2.70891
1 40.3596 14.5602 44.5499
1 35.8157 22.5054 2.21048
1 28.036 34.5876 7.07498
1 1.09145 28.5124 0.584646
1 1.38897 15.0963 44.3431
1 42.381 32.7568 29.2111
1 26.8401 20.093 4.53312
1 27.8681 29.999 12.815
1 8.97086 49.2252 7.47054
1 10.4577 34.8969 34.0583
1 1.82166 34.5982 31.449
1 19.0815 35.2392 11.6569
1 31.7298 15.9633 31.3817
1 22.9288 17.0796 33.9108
1 11.8823 7.41108 -0.0706673
1 16.3903 30.9986 45.0159
1 1.48281 35.8878 39.3636
1 4.94027 46.8155 23.0897
1 40.9044 18.7499 45.6447
1 48.4719 8.68775 27.0619
1 48.2206 26.7142 20.4066
1 9.08538 45.7442 45.0884
1 10.7085 35.398 1.64325
1 23.7485 35.3359 23.9856
1 10.5092 12.1906 43.4717
1 32.696 38.5367 46.913
1 2.44174 43.141 5.56688
1 11.0987 19.8023 24.5781
1 2.21109 41.8937 9.02301
1 44.6611 24.3224 0.334536
1 45.699 25.4378 23.1602
1 0.418895 44.9689 28.0188
1 44.501 31.1539 29.8646
1 39.5077 37.1836 31.4508
1 40.2872 9.54965 33.7358
1 31.6547 34.4259 46.1473
1 7.5431 22.8319 3.60552
1 37.9659 38.8083 30.1908
1 37.8911 42.9891 40.8151
1 7.99328 44.0753 7.25238
1 7.5446 46.4349 16.6504
1 30.1064 26.6222 49.3127
1 6.16827 3.35272 2.64908
1 11.8799 41.0452 12.6317
1 4.66966 47.5737 36.0572
1 6.04531 7.90079 43.6361
1 0.246902 10.1259 10.7914
1 48.2353 11.5527 4.008
1 13.538 5.42421 0.652894
1 23.4454 33.16 27.2717
1 23.1206 16.1514 42.7216
1 44.5151 44.1635 1.67847
1 9.43315 8.01184 38.4136
1 4.70928 26.0451 25.9726
1 34.2618 35.971 6.0771
1 48.8086 26.7889 44.7811
1 20.5277 29.3705 35.3304
1 15.0866 1.74 45.6991
1 7.31126 28.1538 37.589
1 5.87709 21.596 8.35958
1 4.54491 23.0451 0.256993
1 47.5933 24.171 17.3397
1 27.919 18.6705 14.7362
1 36.6611 11.1225 38.752
1 3.18106 37.7768 30.6502
1 11.6576 26.9887 22.0987
1 17.1066 8.84249 19.6275
1 41.2247 27.7592 34.3191
1 45.0499 30.7765 1.45914
1 10.3942 49.2073 20.7053
1 39.0412 19.5039 20.2117
1 35.2411 4.79364 14.7481
1 20.0239 38.5316 17.7672
1 33.4332 29.4216 47.6892
1 3.0593 28.2396 44.8115
1 48.6058 34.7406 7.54903
1 14.8102 25.7347 13.3404
1 34.8647 35.9244 39.3226
1 1.83605 29.1835 15.2226
1 35.8806 16.444 31.4111
1 49.6557 15.2475 7.40159
1 1.38005 20.553 7.06244
1 49.3494 38.5368 15.3815
1 43.8322 23.003 42.6419
1 17.8993 3.90646 48.6888
1 7.21776 28.097 13.2804
1 14.104 2.47324 10.0986
1 24.4549 33.9598 18.0478
1 48.4957 49.4988 34.8194
1 34.5138 40.7583 12.9507
1 5.57327 37.1689 41.0513
1 3.76156 6.67 22.6017
1 44.6241 42.4423 20.6999
1 21.2065 44.0454 27.1286
1 25.4925 27.9604 28.5867
1 26.6561 30.2002 41.6116
1 42.7001 48.3465 23.6481
1 15.5804 2.33693 15.8053
1 46.1415 31.3038 32.2635
1 1.31595 24.5854 21.399
1 8.12355 20.1357 23.6603
1 45.4503 38.1 6.56796
1 8.16278 46.2094 31.8729
1 33.1995 13.8116 35.0948
1 4.49367 34.2312 28.2981
1 1.31425 23.3473 43.6435
1 0.560007 18.1818 40.2501
1 26.0744 29.6915 47.0118
1 46.5101 44.387 37.2199
1 18.1289 49.0197 41.164
1 13.4252 9.74302 48.9807
1 39.174 8.35593 42.6101
1 25.8361 37.4044 44.5764
1 32.3821 9.35367 10.8314
1 8.37163 35.8322 5.0919
1 0.0596616 43.227 32.1494
1 4.15514 11.3153 9.634
1 13.8739 38.0033 49.6188
1 13.1579 6.51633 16.4293
1 7.7979 31.7675 10.388
1 45.2465 21.1511 19.5178
1 22.0508 10.1397 21.2732
1 10.5608 18.482 36.9936
1 46.4005 22.5285 43.8131
1 32.2892 45.7545 10.0809
1 5.97498 2.18512 45.3387
1 11.5545 37.3126 23.1198
1 28.3657 38.497 16.2979
1 2.93243 21.9713 21.0953
1 12.7367 8.24001 41.0056
1 14.799 14.033 13.561
1 28.8659 36.6075 14.1146
1 26.155 27.9848 11.264
1 35.7727 29.3642 30.6323
1 44.0394 46.1728 49.7288
1 13.4527 40.5832 48.5508
1 24.2898 37.099 46.4938
1 3.33004 18.4877 36.8718
1 12.5988 41.2651 26.5936
1 8.9988 4.00239 1.78165
1 23.018 24.7134 21.7223
1 45.3411 36.6119 43.4781
1 15.4097 43.5126 43.2957
1 23.7507 43.7094 47.8168
1 26.8881 49.3223 20.8601
1 15.3798 34.2105 18.0071
1 15.1793 40.7508 1.15817
1 16.3513 32.8377 28.3587
1 13.7359 42.7313 15.1847
1 46.5121 45.8239 9.90702
1 7.54798 11.016 4.46279
1 21.6393 24.5485 42.9395
1 23.7345 37.2326 29.3948
1 7.97595 26.9271 3.89847
1 4.24421 15.1201 21.5452
1 5.54242 11.0901 46.495
1 2.00046 32.0337 4.5473
1 5.92896 18.4624 15.019
1 11.2982 12.6186 25.9412
1 38.8773 37.3649 14.0097
1 6.46689 27.23 30.1993
1 7.23215 15.4439 48.6316
1 10.7901 46.5062 20.824
1 48.6174 44.401 49.2645
1 32.0776 28.8593 0.137972
1 1.79521 25.2021 33.8101
1 32.976 44.762 19.9129
1 9.72182 6.63427 47.8355
1 17.0025 32.8524 48.9774
1 18.1998 41.0812 4.89959
1 24.9742 3.66019 7.87424
1 29.2277 44.8362 25.1869
1 46.4534 38.8014 4.37299
1 18.5822 40.7096 27.5939
1 6.76804 3.77536 19.3509
1 12.9219 25.2209 7.77911
1 37.5234 39.6775 37.8276
1 41.9798 8.40663 43.6313
1 37.7921 9.79008 32.6222
1 21.4787 39.5266 27.5617
1 21.4373 47.4244 24.7167
1 9.86852 23.8342 16.4147
1 11.3083 36.9461 27.7378
1 20.6155 23.4143 38.5651
1 47.8998 49.3692 31.9361
1 39.9253 7.10318 15.6541
1 36.4485 43.4202 33.2486
1 36.2253 16.269 36.3453
1 43.5169 36.4973 21.2909
1 20.0577 17.3727 35.374
1 36.1827 23.508 33.2128
1 11.3711 40.7894 36.537
1 30.4291 10.1563 1.23616
1 45.2371 30.7289 16.4408
1 41.1516 27.1834 23.843
1 32.5758 29.8072 44.6509
1 35.9202 46.8144 22.4504
1 40.3457 3.65254 35.0658
1 29.802 5.90675 38.1835
1 17.3548 32.2884 17.4133
1 21.5596 21.4722 21.0999
1 11.9975 28.2401 26.8859
1 47.4392 35.353 3.09857
1 18.0235 40.8521 25.0174
1 43.9508 21.8699 27.8888
1 16.7364 31.8771 24.2691
1 28.8475 19.3692 22.5774
1 37.7712 46.6647 14.2096
1 16.7319 20.5234 32.1168
1 9.6721 16.285 43.7991
1 33.0518 42.0752 2.06873
1 31.0297 11.9269 9.33895
1 46.4927 35.9469 24.002
1 42.0041 30.2654 48.3765
1 33.7828 40.5004 17.4502
1 27.0594 17.4901 21.7581
1 42.3994 14.2358 20.5487
1 11.392 16.1237 23.316
1 6.57352 39.9453 17.5533
1 23.7535 44.8952 44.5986
1 27.2613 10.0021 22.691
1 46.5149 44.3733 39.9261
1 25.8731 32.2981 35.7567
1 37.8608 27.6449 40.1929
1 2.30833 4.42502 10.5026
1 26.9473 33.6572 24.542
1 30.5245 45.9672 46.2805
1 32.2027 5.0289 3.73456
1 4.56378 4.31024 0.868221
1 42.5865 30.7786 11.5209
1 3.02511 36.4877 28.2767
1 12.1619 37.4164 42.5859
1 23.2194 47.6392 45.726
1 19.7951 34.6582 8.08857
1 1.27202 34.5572 5.14271
1 7.27789 1.12244 47.8143
1 27.3743 24.107 38.8667
1 4.864 22.8538 3.29473
1 15.9251 36.4061 49.3902
1 48.112 29.6419 11.8001
1 1.3571 22.5742 18.4629
1 0.791392 26.5489 19.4066
1 49.2471 39.7956 4.24758
1 29.5647 11.4651 36.1348
1 32.7553 8.5446 45.5589
1 32.4391 19.3312 14.238
1 40.5913 28.0936 6.9048
1 4.96984 22.7812 40.189
1 48.4603 15.9592 3.47412
1 42.4923 44.364 3.90005
1 34.706 22.5138 25.4953
1 1.29063 19.3115 19.5896
1 22.7481 8.7047 4.40416
1 31.9991 1.8647 37.2563
1 34.3354 20.3787 20.6632
1 45.9607 36.949 34.8713
1 29.0425 9.45165 29.8044
1 42.481 12.4758 44.4935
1 20.5923 11.703 19.2219
1 9.57546 29.9085 45.9952
1 24.9351 29.6915 0.28044
1 41.3996 38.6068 5.85682
1 18.9057 5.16089 26.3865
1 5.32621 32.8388 24.8284
1 24.1247 15.1249 13.5226
1 15.3721 34.0099 1.56145
1 17.8503 36.6499 36.3064
1 18.4828 29.1903 0.70803
1 1.31459 29.4951 23.434
1 23.4316 42.4809 22.6329
1 14.8841 19.4485 19.0483
1 11.4562 26.7835 6.04536
1 16.1167 17.0099 36.0017
1 42.3404 2.38344 21.4568
1 2.42526 11.0856 46.4932
1 36.1444 5.50228 24.3626
1 17.873 30.2321 22.1489
1 7.01029 17.4817 34.4072
1 42.0924 36.7621 43.5282
1 2.81765 28.0864 11.2352
1 33.0486 46.2686 3.83923
1 7.38111 42.0864 12.515
1 47.5178 49.2581 43.883
1 37.2704 32.0262 19.8806
1 19.8602 47.0048 4.19037
1 17.402 11.656 48.7595
1 4.16942 30.0585 8.04849
1 40.4706 38.802 12.3078
1 45.4173 6.49195 49.1026
1 7.25782 45.3075 34.4923
1 34.7323 47.5693 0.394772
1 17.7713 4.57154 12.6649
1 1.9571 19.5833 45.4413
1 35.0624 38.6052 38.6651
1 21.074 34.8462 18.8853
1 30.3254 46.4337 30.4925
1 0.0746924 27.5235 25.0993
1 43.5984 21.2878 46.256
1 44.804 40.343 3.13748
1 46.707 20.6333 1.72574
1 30.5477 2.08611 27.0047
1 33.7816 42.6621 26.3806
1 27.1936 26.977 7.08538
1 8.37484 0.138531 30.5408
1 24.9114 30.2122 8.68345
1 15.04 42.3154 26.9858
1 43.6982 9.6359 23.3962
1 35.1219 13.8459 24.0934
1 4.72663 42.7649 20.3999
1 8.06647 48.3804 22.6263
1 16.2083 42.4709 24.4051
1 14.4522 30.9752 25.5761
1 2.34543 46.3439 35.4815
1 8.44628 32.1791 37.7467
1 0.204029 42.1519 29.6602
1 19.2957 13.1548 30.3036
1 1.47117 3.45795 5.22292
1 0.406864 49.333 9.02183
1 17.7656 32.0034 2.46446
1 1.54161 15.0147 21.3342
1 23.1716 16.1332 25.1825
1 2.54361 11.1027 7.48423
1 26.9053 0.90308 18.6545
1 3.19275 26.8157 32.2366
1 19.9201 37.7708 0.0706252
1 45.7106 38.5669 45.536
1 19.8848 7.35446 37.1722
1 36.1154 31.8854 8.06317
1 41.3761 34.0179 35.3757
1 41.806 29.4694 44.0994
1 40.5561 43.9641 1.84617
1 11.5571 4.16889 29.8106
1 6.581 35.8931 17.1225
1 46.9321 34.3057 44.7119
1 24.8159 26.2765 44.1422
1 37.3401 18.2773 6.15217
1 49.426 2.89742 43.9749
1 14.1857 5.27515 26.6338
1 33.3965 38.0056 32.8773
1 25.854 26.3459 13.5562
1 8.85832 40.3627 42.6502
1 19.1595 11.308 5.739
1 30.8184 18.4666 0.834073
1 8.5382 29.9524 28.4084
1 39.8733 45.3908 40.4903
1 14.087 10.6976 1.76048
1 31.9006 30.9769 10.5286
1 39.9496 45.43 5.38719
1 9.23014 17.7641 31.0136
1 33.6618 2.70848 15.8695
1 26.9423 46.4584 41.0189
1 21.1544 6.25547 29.3654
1 8.52628 28.9787 24.0575