4096
 Atoms. Timestep: 720
1 3.82269 31.7475 17.8518
1 28.1486 17.8671 13.6666
1 37.9972 0.416973 30.7313
1 21.9187 41.2679 11.7113
1 46.7913 10.4453 24.5502
1 14.2553 46.9195 39.311
1 24.8155 38.1392 4.87864
1 34.0373 41.5195 15.7652
1 2.09249 45.5617 39.2363
1 40.0394 47.052 27.6333
1 27.8875 13.9658 4.73075
1 43.2544 43.0102 36.1234
1 15.745 4.28373 6.49126
1 3.15812 17.7962 25.8439
1 32.7877 28.278 7.70333
1 26.5754 7.96783 16.663
1 37.216 5.22735 41.9368
1 3.99092 23.4126 3.33207
1 15.3731 13.4811 17.9771
1 8.67937 23.6851 6.98994
1 40.6648 11.1276 8.26774
1 12.4541 27.675 13.568
1 4.32296 36.0038 39.0785
1 47.6705 18.0176 22.3728
1 13.0403 9.82555 44.4789
1 48.7013 35.3059 16.2585
1 4.53025 8.89369 16.7271
1 12.0141 13.2213 21.3588
1 8.06297 13.6836 30.5715
1 5.15334 45.3851 45.2063
1 29.4432 39.8443 43.0533
1 6.33312 6.3243 12.4165
1 36.9675 1.42882 9.3276
1 6.63529 26.4815 15.3968
1 26.4985 47.9568 43.1205
1 10.048 44.5052 20.2876
1 13.9585 16.5441 5.8292
1 21.4827 30.5106 39.3409
1 2.38931 32.3991 8.78912
1 37.2974 13.4925 17.9161
1 28.8303 39.366 31.6256
1 40.3431 27.0374 22.9368
1 3.43644 42.1109 14.8054
1 35.289 38.6769 45.7654
1 2.78243 6.36811 12.7307
1 14.6041 26.785 37.4962
1 38.9207 27.4894 28.8361
1 4.78513 32.6008 12.6365
1 4.71637 0.729236 24.018
1 14.5225 36.2609 11.3317
1 10.1409 5.37901 22.2241
1 31.519 12.2335 48.8149
1 10.138 16.2702 36.1578
1 6.68675 26.1501 44.5136
1 37.8374 21.4115 1.83802
1 36.0884 28.1708 32.0641
1 28.2081 18.3757 18.1417
1 46.5408 46.0895 34.9361
1 32.4381 3.6171 1.04501
1 20.2167 23.8895 8.07288
1 32.9392 33.9025 31.425
1 9.48591 43.6812 36.2007
1 46.5648 42.4167 2.17385
1 9.7714 15.6921 44.1162
1 43.9526 48.8051 6.15475
1 3.99648 3.06025 18.116
1 41.2685 8.98524 45.0404
1 39.9375 7.33607 16.6363
1 22.4742 19.2493 42.336
1 44.4074 21.106 6.554
1 25.4269 4.14837 31.1795
1 26.6315 24.6291 28.8513
1 17.2566 1.88024 22.9586
1 29.9001 38.4881 4.99669
1 26.8926 48.9795 23.1106
1 12.1034 2.7403 31.2336
1 45.7743 32.7132 5.43061
1 16.1818 35.5112 22.6044
1 26.6124 23.2157 18.2879
1 1.28075 24.4137 3.29119
1 37.6535 8.46011 45.8248
1 31.5888 6.82888 31.204
1 14.7848 8.32493 8.75612
1 3.66438 48.4232 16.2471
1 27.1498 13.258 16.6518
1 22.6057 47.2762 39.4985
1 18.5588 46.1888 12.2817
1 8.67629 36.2748 3.2763
1 2.5079 18.2911 12.2016
1 41.3719 40.8223 34.1307
1 22.8478 3.56434 30.0569
1 6.35526 39.3822 13.007
1 36.8365 4.95053 0.200047
1 31.8427 2.02435 20.0098
1 15.6859 10.2704 26.5169
1 46.8163 12.8857 18.0573
1 20.3075 5.45412 35.3018
1 16.272 0.692113 46.7142
1 22.9187 5.36093 48.9169
1 8.05521 36.942 40.7456
1 31.8455 19.5748 33.5209
1 22.7092 17.0396 1.46239
1 17.5565 27.8228 4.67346
1 16.9096 33.9406 19.3603
1 6.24325 3.9726 14.0556
1 38.5816 30.8308 19.4746
1 46.9165 18.5945 8.09737
1 8.84216 4.81583 4.87092
1 37.8613 8.62375 42.1725
1 9.47084 44.539 44.0902
1 36.5321 37.9527 22.4255
1 15.8102 45.5451 18.2779
1 31.9409 33.4361 28.7188
1 2.00175 35.7116 43.1077
1 27.9213 24.9155 10.533
1 27.9565 22.3219 9.70524
1 23.4847 23.0391 36.9858
1 44.1006 1.29867 33.4759
1 46.8578 25.1407 29.0609
1 21.026 1.77764 12.023
1 14.7693 22.662 48.5523
1 37.5427 10.2706 18.2242
1 44.5574 11.3958 40.5502
1 20.0747 37.1494 3.6225
1 15.2132 2.05986 31.2569
1 42.0672 21.2135 22.4927
1 35.8562 35.553 34.5678
1 49.3367 18.0487 9.0771
1 28.5783 3.15299 37.9733
1 42.1381 10.5671 2.3042
1 13.7004 37.9681 21.1744
1 37.0008 26.2039 22.6202
1 20.0375 5.02359 1.25823
1 16.8011 40.2536 11.0509
1 4.52934 6.43596 32.0681
1 44.5757 37.7003 10.5766
1 5.02697 19.7102 5.4146
1 18.8866 40.8637 24.1276
1 37.4574 4.01102 35.7021
1 0.756371 36.5953 18.0156
1 25.5974 11.8838 38.0322
1 30.3071 36.2143 28.4057
1 20.8384 11.9927 48.3897
1 34.7745 1.01662 13.7621
1 48.7195 30.4093 19.8687
1 2.54279 42.1915 18.1132
1 5.57211 11.3873 7.3561
1 41.4232 46.5169 41.7662
1 16.0522 18.8989 44.5988
1 46.2243 26.2684 8.5189
1 13.0437 20.1863 1.04518
1 36.927 47.7617 19.4483
1 13.8606 21.8256 24.6497
1 2.0924 46.7341 30.7143
1 2.68572 27.4193 17.6759
1 45.9093 0.0268178 11.6357
1 39.2556 7.83171 35.2821
1 19.6998 6.49498 19.57
1 35.3676 47.5768 4.02678
1 37.5826 15.8045 1.38021
1 34.5178 0.360004 45.5066
1 17.5978 5.70178 5.56388
1 48.8928 14.7559 33.9675
1 30.7984 15.0177 11.6239
1 35.858 3.07384 7.17987
1 48.8823 48.77 9.9327
1 33.7646 10.9082 15.8253
1 40.6886 31.0551 22.4594
1 33.1766 38.6772 7.57992
1 23.3965 12.7791 48.3885
1 31.198 6.99328 22.9667
1 29.9542 28.2879 40.001
1 11.5657 7.71872 23.8822
1 27.5744 27.5625 42.6522
1 29.7129 36.6068 15.8649
1 20.7366 40.7744 0.63862
1 9.32061 7.50416 3.9068
1 26.5989 48.466 27.9696
1 19.5524 29.3264 34.4995
1 10.0816 34.8171 37.6039
1 45.6906 22.5234 25.1042
1 12.5468 9.93138 5.68706
1 32.4098 40.452 33.0034
1 10.6361 24.4321 48.8443
1 15.0935 2.68679 38.0865
1 34.4115 19.6418 34.715
1 25.2255 10.054 32.0653
1 5.89501 30.8432 15.3254
1 31.4737 46.33 38.2469
1 9.61102 0.866231 9.0973
1 0.341641 34.2078 38.5732
1 14.6232 31.7449 36.0268
1 33.0682 26.7506 42.58
1 8.4168 47.8241 4.17308
1 48.0406 8.52797 18.3085
1 28.0263 3.18898 42.5287
1 46.2202 4.97051 9.5741
1 33.0668 26.3259 15.2243
1 33.6208 20.5961 27.3259
1 1.67257 17.8237 23.7267
1 20.2251 16.5969 22.9488
1 16.9052 14.248 5.89693
1 6.26544 16.0534 15.8675
1 47.4486 10.3048 21.3336
1 45.5015 8.51914 47.9222
1 13.796 44.7296 14.9001
1 19.8237 19.2705 7.99742
1 40.8547 34.7117 9.40274
1 24.3544 3.85454 11.9927
1 22.7529 26.7388 28.4664
1 39.0059 41.7805 24.4846
1 38.3992 44.1119 22.0276
1 37.8647 20.4049 38.7611
1 4.70572 43.6133 49.8937
1 18.5201 36.5972 13.4839
1 49.3523 4.70848 23.8528
1 12.2063 30.9602 27.4573
1 28.9382 37.3175 22.4817
1 5.499 7.56781 4.31269
1 48.2926 4.47921 3.94906
1 22.4095 46.6118 14.5502
1 6.32133 39.9241 2.82895
1 32.2925 10.1266 2.88809
1 19.1498 9.65832 44.3844
1 25.5468 34.0139 15.2376
1 19.2528 18.7348 10.8831
1 31.7387 24.2147 30.6582
1 48.8104 14.4422 19.302
1 19.1676 18.2114 3.07084
1 22.8836 40.1918 48.6884
1 21.6038 26.2824 9.11371
1 26.0832 39.6626 10.4144
1 23.8038 24.8239 20.9657
1 22.4719 6.40442 24.6936
1 32.9856 14.7977 43.4219
1 32.772 37.6677 19.7342
1 12.8488 19.521 32.7933
1 2.35958 7.42808 8.77983
1 44.7852 25.6969 6.10933
1 44.5995 27.7708 41.8748
1 32.5013 18.1209 14.3235
1 17.6809 42.2971 36.2174
1 29.0663 24.5548 33.5149
1 49.2545 11.7187 11.8671
1 13.3785 42.9728 46.521
1 6.1041 15.1409 23.0174
1 20.4634 36.3205 21.7927
1 16.1547 38.9542 42.2908
1 37.6821 2.86059 5.08252
1 24.414 7.13335 22.8468
1 38.2473 40.2001 48.9056
1 19.736 19.6014 46.5547
1 34.44 43.6991 17.2297
1 25.1237 13.3055 40.5147
1 8.08579 13.1172 20.3557
1 6.86318 39.3213 49.0499
1 42.1288 16.2312 23.3363
1 48.1638 12.2953 9.24089
1 41.9951 25.9728 44.7304
1 49.3704 46.2548 41.1419
1 18.0275 15.4598 21.2608
1 15.221 15.7845 3.29026
1 36.355 0.307662 33.7509
1 48.3561 13.5321 46.0655
1 45.1184 44.95 14.7055
1 6.15959 1.57282 18.9291
1 23.533 19.0352 10.6926
1 19.0575 38.418 37.5786
1 14.9262 44.6684 10.0046
1 43.4026 31.1178 33.6952
1 10.9475 41.0884 22.9379
1 35.185 19.6602 24.7254
1 44.1785 38.5938 7.63928
1 9.72509 19.2739 7.94591
1 15.6363 28.5453 48.6265
1 1.76016 28.2343 3.50945
1 2.4413 41.582 33.4343
1 31.4037 17.1641 36.7688
1 33.7631 47.321 41.4064
1 3.1255 0.884185 40.7703
1 24.5061 8.92451 45.6851
1 14.3845 24.4246 15.4175
1 49.6239 3.13245 45.822
1 16.9367 23.5562 24.1447
1 19.9793 4.36256 10.4881
1 16.0876 21.0731 12.9682
1 13.1152 15.7685 1.60728
1 46.5483 43.2384 27.039
1 0.631025 28.4929 19.2814
1 28.4533 26.7713 26.8242
1 40.2859 19.3819 40.1056
1 0.403173 25.1124 47.448
1 41.8738 21.3568 35.0115
1 6.62459 41.6538 42.7897
1 42.1141 15.3145 40.4273
1 35.5037 30.9735 5.44397
1 41.7479 8.65122 8.13172
1 31.0588 26.0866 41.0849
1 42.2727 19.6266 26.5222
1 25.2876 6.23704 41.2994
1 4.34642 37.1222 8.80462
1 12.165 33.6094 7.54763
1 28.6017 43.3987 19.8215
1 23.2761 9.34255 26.2122
1 1.21854 4.07043 38.6382
1 37.8115 17.6313 9.98773
1 9.83476 5.38612 16.6633
1 46.3998 9.329 15.9155
1 6.45498 10.4638 12.4921
1 17.8081 25.9999 38.9202
1 8.86552 32.619 31.5469
1 39.8755 15.8498 49.1736
1 5.27127 45.5794 35.881
1 41.3437 45.3223 11.4074
1 44.0215 31.9959 25.2524
1 42.9829 32.1102 44.4651
1 33.1537 6.07203 46.8653
1 4.0688 15.809 9.35469
1 35.0646 12.6538 38.3298
1 20.2184 0.241596 30.1899
1 45.1033 18.0529 10.4412
1 32.0934 24.5348 7.36121
1 43.2121 29.1676 37.6072
1 11.7945 42.1349 29.8258
1 9.57361 -0.102579 28.8349
1 0.522112 29.6311 39.2805
1 4.2308 37.6445 34.4737
1 1.37442 15.4043 38.5694
1 40.4457 14.3855 11.59
1 46.842 1.37365 48.075
1 31.5954 35.1899 22.5597
1 19.4226 15.2504 12.1139
1 16.2349 40.7172 21.3405
1 32.5661 47.1901 29.6555
1 42.854 17.6811 8.86679
1 28.5054 38.8945 12.0789
1 41.3361 38.243 34.8446
1 45.5403 3.26452 46.0615
1 3.95569 40.3722 31.3943
1 0.746818 3.61207 33.8363
1 12.8515 2.00928 26.7183
1 44.335 20.5986 34.7571
1 2.32778 25.9172 43.5691
1 45.0228 4.51121 37.7261
1 36.4132 13.726 40.5764
1 10.816 16.8916 14.2293
1 49.3605 11.8724 24.4827
1 48.0399 8.33627 44.1404
1 27.6879 26.0596 38.1452
1 32.0134 17.5101 9.94571
1 21.0642 6.80754 8.03939
1 38.6179 17.7062 2.98701
1 45.3433 32.9847 11.2066
1 19.9663 20.9236 42.4804
1 3.24895 30.8623 38.391
1 41.0786 27.4465 30.5633
1 2.44834 11.4859 31.6028
1 7.88057 5.4139 10.5784
1 1.30147 7.38632 22.9124
1 20.2313 1.70142 18.7023
1 15.922 26.3848 18.7124
1 2.20136 39.0463 28.3212
1 22.992 6.73196 2.02337
1 16.8044 22.8801 45.2287
1 46.3011 39.7142 23.1712
1 20.2968 25.9012 38.8611
1 12.6851 5.33903 10.3589
1 38.0887 14.8648 22.5043
1 13.8124 15.6619 17.0586
1 3.24852 18.2682 28.9294
1 47.4261 -0.0127271 16.6607
1 38.8811 12.5638 46.4853
1 13.3557 6.25818 14.0181
1 29.1197 14.2785 48.5763
1 47.5636 35.4038 41.4305
1 39.3275 34.6939 21.3171
1 6.4694 35.0605 8.88445
1 36.3569 38.5515 1.03812
1 16.065 14.4286 9.22685
1 11.8841 17.3118 45.3812
1 11.9637 14.2994 29.9211
1 1.47044 42.9394 45.1103
1 0.0705368 35.8026 34.2403
1 48.975 47.9295 12.5401
1 31.8513 43.422 46.0057
1 8.30963 46.4818 38.7747
1 16.8775 21.5344 6.29643
1 38.4068 10.8804 31.0539
1 15.4659 11.8802 36.5368
1 30.0615 45.6524 10.6693
1 10.8606 15.1409 47.3706
1 12.637 15.0416 14.6443
1 4.97535 29.1709 25.3501
1 39.436 25.4532 26.8602
1 0.510365 0.218477 39.6469
1 22.4159 6.32554 33.5114
1 21.1967 36.2933 32.507
1 21.945 24.6392 0.476218
1 46.8638 16.712 48.8347
1 42.7137 10.639 42.3235
1 35.4625 36.4515 48.0069
1 9.1606 15.3404 26.4687
1 28.333 6.66931 15.2133
1 17.6405 28.5606 1.30295
1 3.44077 45.5778 3.77309
1 10.7346 25.5804 38.6098
1 34.5769 16.3885 26.2277
1 39.9153 40.3822 2.57051
1 16.7112 18.9227 18.5923
1 21.8348 25.9389 32.3241
1 18.3925 27.7828 7.5609
1 7.20871 -0.020133 42.5117
1 18.1123 42.3186 12.3494
1 12.3135 48.3923 38.6643
1 38.1012 48.0217 25.3054
1 18.7278 4.69929 37.5269
1 30.5967 34.3349 25.6254
1 15.2609 22.676 42.9604
1 4.51418 35.2621 2.96643
1 2.55123 12.5835 1.51728
1 12.2809 3.35681 21.5238
1 33.3997 4.12738 38.5319
1 24.4825 18.3555 28.2362
1 1.91059 5.56729 30.2933
1 21.3453 27.6053 26.1693
1 27.4421 1.96828 2.84362
1 12.1182 12.6709 46.5498
1 12.1098 32.5583 31.4538
1 8.59084 42.893 23.287
1 49.018 20.3434 22.2764
1 26.7014 9.01017 27.2919
1 35.2424 3.44378 27.9747
1 26.1604 45.3312 30.2164
1 39.9973 36.2397 0.198292
1 37.6535 16.698 17.433
1 14.6776 2.34142 2.3729
1 20.0852 22.4037 29.2181
1 33.5654 34.9913 20.5354
1 28.6586 0.0352497 28.9994
1 15.6093 21.7458 20.9038
1 3.5542 42.0358 29.297
1 35.8834 6.83558 8.42562
1 44.6398 6.05894 2.43313
1 28.4391 11.4668 47.3693
1 0.434654 40.2152 39.9112
1 38.8879 18.7704 30.1703
1 0.361235 26.6168 23.2044
1 6.03135 30.69 6.97371
1 22.7546 8.37245 4.42516
1 28.7636 30.0451 17.2575
1 41.4396 49.3884 17.7743
1 22.2989 40.3861 40.1121
1 7.70974 32.6298 28.985
1 12.838 12.3338 36.4779
1 7.75441 42.9021 25.9278
1 31.253 9.91455 24.2596
1 20.886 31.9397 15.022
1 15.5913 7.96077 16.7851
1 7.03739 8.87484 8.92423
1 34.4678 29.3886 24.6631
1 45.0673 35.402 40.32
1 3.36983 22.9592 32.9617
1 7.65165 15.6833 7.5299
1 8.44098 6.80669 32.0785
1 21.6098 13.3831 13.595
1 37.3701 45.0939 32.6063
1 22.7283 19.3436 24.3077
1 1.05335 0.842085 4.18296
1 20.8055 48.8926 10.1795
1 46.1675 34.1386 45.4835
1 37.7594 32.8578 25.5632
1 23.0834 41.9722 45.7335
1 10.4519 32.1526 1.51352
1 26.4477 22.8396 48.549
1 17.6775 17.3702 24.9534
1 45.6061 9.86205 2.42206
1 9.78522 27.4416 17.0688
1 46.6887 0.961854 34.9615
1 1.69528 44.8105 15.9688
1 4.40303 7.14584 37.3401
1 39.8359 12.7369 1.70931
1 48.1663 19.8111 11.5947
1 35.4875 11.977 13.6827
1 5.45708 1.55862 38.684
1 49.2327 4.99713 31.7562
1 21.7341 32.9884 41.0386
1 43.2835 37.6147 27.2134
1 18.3203 7.0843 0.745637
1 30.272 44.5656 21.9217
1 45.2534 30.6355 37.692
1 8.02468 38.0095 23.9873
1 13.659 19.1982 35.2802
1 8.55073 35.2725 14.1374
1 25.4732 4.83501 48.4351
1 17.3519 31.3357 45.9354
1 14.2687 27.3321 28.117
1 13.7216 49.4317 34.3454
1 2.82086 48.0715 42.8187
1 48.1224 11.2274 32.0948
1 36.4991 45.9211 44.9359
1 30.0185 1.67071 26.8453
1 5.26885 34.4513 14.4707
1 13.7158 12.4108 7.92419
1 13.6136 40.7839 34.1145
1 31.6798 41.1996 20.3935
1 3.90788 31.9337 46.2507
1 2.37414 38.4048 0.84051
1 1.90641 2.5244 48.8374
1 12.0427 46.4343 44.521
1 14.274 36.047 28.4538
1 17.7684 46.3569 16.567
1 18.6981 3.56407 33.5953
1 48.8159 18.1186 44.8179
1 7.20951 43.8618 34.8304
1 43.6097 13.3464 30.1204
1 2.42094 6.57242 45.1434
1 20.8265 23.1034 39.5424
1 14.9224 46.4406 31.5867
1 47.5159 5.17404 45.6211
1 7.49429 4.91579 45.9435
1 40.8137 24.6419 1.26043
1 21.8821 14.7025 20.2782
1 33.3192 24.1637 19.714
1 18.7027 22.5116 40.7252
1 4.4679 3.74203 31.2817
1 33.9399 42.3729 6.78524
1 22.6583 35.0083 7.63969
1 43.3943 17.8603 30.563
1 47.5649 8.90088 38.2222
1 36.4645 16.5708 13.1516
1 36.7757 42.1308 28.9861
1 23.3044 35.4113 0.47204
1 31.9713 32.7818 35.6727
1 19.5308 42.8789 43.1037
1 40.6534 20.5024 7.50434
1 36.683 42.3232 6.94644
1 33.84 8.83603 43.2277
1 47.9472 38.6582 39.3398
1 29.436 20.1948 20.0475
1 12.2366 4.77317 26.8442
1 40.5337 30.8356 36.9382
1 1.37401 6.48233 41.838
1 6.9756 45.0439 21.5725
1 36.3865 46.8901 7.89865
1 8.96479 7.05405 27.3726
1 24.0656 35.692 29.6591
1 37.6364 27.7704 5.27433
1 1.17966 10.1691 33.7004
1 0.506021 13.9062 26.3107
1 5.18497 42.4154 25.7702
1 40.587 19.257 32.3605
1 25.9207 0.689174 26.089
1 3.87512 26.4954 48.4119
1 7.17918 28.1932 6.77767
1 12.9166 48.9294 19.4911
1 6.74289 47.1657 23.0966
1 39.1453 48.5846 11.5506
1 4.8598 5.89055 6.33008
1 3.68714 30.0144 4.09259
1 9.43568 3.56981 40.1134
1 35.7864 44.5787 0.183929
1 45.6777 14.6693 46.2071
1 38.2323 24.521 44.047
1 30.4966 23.1906 25.4778
1 38.6271 27.7927 19.189
1 5.67689 30.9054 48.0719
1 42.9896 31.8246 14.5824
1 25.569 44.8009 40.2854
1 1.1274 2.92497 22.9003
1 29.661 18.1348 34.8066
1 40.5042 2.57993 27.3277
1 26.2626 12.8033 43.7777
1 16.0106 0.205531 29.7969
1 10.7392 23.3693 20.3204
1 1.13438 1.84156 26.195
1 31.9066 36.1303 17.5829
1 11.7173 3.17717 38.4288
1 6.27795 32.5587 4.8773
1 48.8887 2.85133 1.79015
1 45.251 48.1912 36.1428
1 41.3945 39.2063 0.351988
1 41.6502 14.3321 0.870886
1 13.2662 19.5308 48.2202
1 49.5392 32.2789 28.0301
1 10.4423 19.6232 15.0557
1 24.8103 45.4858 7.30242
1 5.57666 40.3401 40.3637
1 14.7748 47.0436 42.0148
1 24.945 14.2317 7.7138
1 14.3395 7.43588 38.0336
1 6.74026 22.2184 12.5771
1 3.38119 9.08785 4.10907
1 25.5029 25.9414 2.13361
1 33.2104 33.1405 42.3133
1 38.6237 27.9556 16.4489
1 11.2354 43.8837 13.9826
1 44.5503 13.4853 21.1659
1 0.602656 43.6393 25.7934
1 12.7645 34.2031 23.8925
1 45.8018 12.2663 13.0421
1 34.9579 22.9192 16.5061
1 23.2604 24.1401 24.4268
1 15.8826 21.4357 9.10208
1 12.96 2.25626 46.2448
1 14.7914 46.9942 3.38415
1 42.8048 48.3862 13.5163
1 14.5934 30.4402 23.9321
1 37.8887 1.09213 24.6607
1 13.7365 48.9512 45.8337
1 42.6535 36.3749 33.4645
1 10.1791 21.1438 40.0526
1 30.6653 35.6088 36.7163
1 2.54666 13.1675 14.5954
1 46.3666 4.66504 0.329733
1 14.8683 38.1128 46.7556
1 12.5057 38.1145 11.5522
1 33.5702 8.00337 9.32942
1 49.2925 8.14819 41.632
1 5.18194 43.7241 30.1655
1 20.4667 34.6373 30.0557
1 4.54199 48.1177 0.295668
1 31.0415 10.0463 6.76961
1 18.2956 42.9021 38.9945
1 35.6556 6.42304 32.063
1 10.4463 43.3875 32.0335
1 1.90086 4.33794 20.1061
1 30.3762 26.8064 7.63449
1 3.20991 14.1056 47.2848
1 46.4265 28.8362 5.52698
1 29.158 1.26316 15.2661
1 47.7895 45.5614 31.3026
1 23.5114 11.7676 33.7084
1 15.2955 16.0442 47.7058
1 9.24955 5.25859 13.6731
1 43.2142 48.7041 47.0878
1 0.622979 45.9023 43.6775
1 26.1187 19.0814 7.08303
1 5.94253 38.7371 30.7184
1 46.2143 45.5014 20.6384
1 18.0661 28.4332 40.4792
1 2.23775 42.4126 47.5828
1 3.20288 18.6038 14.7439
1 43.5963 25.3795 42.812
1 9.86354 1.72467 24.4791
1 0.485621 48.9796 17.5057
1 44.3829 6.58137 5.93446
1 26.009 34.2744 39.7354
1 7.34437 5.61964 22.5747
1 47.0157 21.0712 7.85119
1 17.0053 39.8326 45.9783
1 38.8459 16.7268 5.37847
1 12.3875 4.38159 44.7931
1 8.16113 19.6243 18.7247
1 26.014 13.7649 0.975585
1 33.9823 27.8428 38.5218
1 44.2752 10.931 23.0801
1 7.46751 37.7128 37.2034
1 40.9722 10.0145 24.1446
1 2.74158 6.53185 34.0823
1 20.2424 49.0363 20.9806
1 36.3294 45.0605 25.8344
1 12.6421 16.8886 20.3696
1 1.5811 12.9033 37.08
1 46.798 12.5422 5.7204
1 9.19124 28.9434 30.478
1 29.5041 39.4086 40.1256
1 27.3835 41.8545 26.3357
1 15.507 46.7865 8.01357
1 32.6893 6.77141 35.8981
1 48.6124 42.891 39.1621
1 26.8374 6.82619 30.9828
1 27.394 34.5979 46.2815
1 9.92063 14.0553 2.3047
1 12.7244 11.7613 39.4895
1 8.52038 46.0944 6.30018
1 38.0207 33.1794 32.3653
1 15.3605 15.1162 34.6975
1 29.8555 41.382 22.8552
1 25.5228 34.9755 31.8285
1 11.8378 45.0587 22.0229
1 24.0321 7.51665 10.0148
1 19.4526 15.8826 49.2465
1 49.5616 41.8087 17.2712
1 39.3732 29.7338 13.2181
1 10.3937 22.6484 25.1587
1 46.9333 31.4985 1.4441
1 45.6138 21.5887 43.7354
1 1.95755 9.29216 15.5338
1 34.2933 45.537 38.132
1 25.1567 46.929 13.9124
1 25.9475 38.6653 37.5664
1 42.9586 37.1687 19.7911
1 22.9926 38.7023 2.6379
1 29.3982 12.2253 45.0039
1 26.8877 33.0874 8.19042
1 6.73909 14.3731 34.0979
1 9.55762 42.7268 48.658
1 6.12592 19.453 2.7768
1 8.45864 30.9372 16.6179
1 2.79565 28.6083 10.7917
1 10.188 0.666119 15.0471
1 43.192 43.1586 21.9741
1 49.4313 9.82574 6.58761
1 43.3384 33.0962 18.8356
1 12.1806 26.1587 36.209
1 23.425 22.517 4.05987
1 25.4464 3.99415 15.515
1 18.2099 22.2746 4.00969
1 6.69525 44.0857 7.78713
1 5.92468 42.9054 14.3914
1 26.5001 21.9212 7.41225
1 49.1852 20.4749 17.1575
1 38.9545 24.2641 29.8828
1 23.3822 39.1358 45.9
1 17.1811 17.2152 49.193
1 0.448142 7.32552 16.5943
1 34.4806 6.6737 38.6727
1 18.7058 4.93231 15.4947
1 45.371 11.287 19.7702
1 38.7232 34.8333 11.3918
1 24.3813 24.2029 32.5215
1 41.1296 24.6476 11.3067
1 40.5073 6.22303 19.6229
1 35.197 19.9956 46.9744
1 49.2706 17.6647 27.9848
1 47.5909 45.4543 13.3039
1 8.59177 28.1858 40.8421
1 7.1732 32.4385 9.03061
1 18.9168 14.2444 9.54983
1 32.6994 12.9748 20.3019
1 10.7227 23.4689 33.9609
1 17.7468 44.11 33.0079
1 45.8256 34.5109 16.4614
1 43.0466 7.56217 19.3514
1 32.484 31.6927 39.1947
1 7.90754 2.75913 37.9208
1 35.1275 31.7229 0.147912
1 0.141083 23.9457 37.1
1 20.1026 45.0164 45.3268
1 22.7537 48.7896 24.6746
1 44.0672 3.88008 41.8569
1 32.6421 37.268 30.0168
1 2.18374 19.2013 37.1031
1 31.7297 24.4562 17.0886
1 38.458 29.9683 35.6467
1 35.6261 29.9477 1.80714
1 12.0791 22.2741 15.437
1 28.279 28.7717 34.4029
1 31.5572 14.7878 2.33076
1 15.8104 1.55706 26.2668
1 34.2035 29.51 18.0628
1 0.926156 13.7042 8.57872
1 3.69637 48.4783 9.99618
1 5.15052 30.132 19.4375
1 25.8745 -0.0466244 35.1971
1 9.8454 5.86016 7.37074
1 27.3353 30.6494 38.324
1 23.6105 3.80084 5.04056
1 33.0642 48.2491 2.88561
1 20.3945 15.4913 2.445
1 30.4671 4.85337 16.9531
1 13.076 20.367 8.17263
1 10.5569 6.30464 19.4441
1 31.9485 4.68833 24.8576
1 43.9771 8.11194 12.3859
1 23.4085 32.4443 9.57216
1 41.3119 16.8109 19.7179
1 18.3721 25.9217 1.50013
1 38.8513 17.7043 19.4859
1 27.6955 14.6038 28.3413
1 16.5183 6.37399 39.2681
1 45.6704 31.6259 17.3213
1 26.6519 46.2333 3.59304
1 10.3955 41.9432 44.2624
1 10.0416 34.4442 19.3151
1 42.0344 31.7536 6.53855
1 7.0643 34.4628 48.7857
1 48.8857 5.47284 28.1971
1 5.27329 41.2033 10.5579
1 30.9365 28.9962 45.044
1 39.5229 44.9917 9.7379
1 17.1815 33.1573 48.1148
1 11.7371 28.9567 48.1152
1 23.538 21.3154 18.0699
1 38.133 6.69954 10.4217
1 9.4665 2.33776 21.8188
1 43.7547 19.9395 2.98163
1 5.89954 25.5655 9.32973
1 44.354 29.9534 2.08396
1 27.1478 47.1902 32.0117
1 40.2007 16.3814 44.2744
1 31.5566 41.4597 48.9698
1 48.707 22.3733 25.6707
1 12.7741 47.1589 7.26044
1 36.3371 27.168 20.2311
1 41.6379 35.4154 38.5766
1 0.595022 16.7154 34.9071
1 6.14536 43.9122 41.3495
1 20.1598 22.9788 21.1536
1 8.14742 48.4681 18.4599
1 12.7251 13.6456 32.2222
1 38.6312 5.36092 14.2921
1 34.9234 16.9942 4.61203
1 13.8317 0.815478 9.5216
1 6.14906 4.02191 5.26204
1 48.6374 12.8639 38.8017
1 5.57622 4.92141 35.4585
1 4.61876 10.7414 48.3321
1 23.5514 38.7794 20.1254
1 34.4713 21.8759 48.8236
1 17.057 36.903 4.51913
1 37.7241 30.3234 4.34276
1 40.6867 14.3021 42.4323
1 35.4343 20.8112 1.53215
1 29.6071 34.2167 5.2945
1 1.89864 29.1256 49.0407
1 0.541787 15.7147 41.1705
1 44.0233 32.888 28.1714
1 28.0546 19.913 2.8856
1 27.4626 30.9214 14.0778
1 8.7124 46.733 10.512
1 10.0667 35.8561 33.6384
1 1.51367 38.5151 31.0137
1 20.1575 34.567 11.4566
1 29.4792 14.9854 35.371
1 24.0038 13.5762 29.6669
1 13.2166 10.0163 48.7393
1 16.242 32.7665 42.4804
1 1.78575 36.5711 38.8761
1 6.61124 49.5964 22.0912
1 38.5024 18.849 44.7241
1 0.212604 7.70779 25.6869
1 43.1271 27.4457 23.0558
1 10.3294 48.8053 45.559
1 11.6938 33.8705 49.5887
1 24.8278 34.7311 24.2837
1 10.804 13.2981 43.5249
1 31.0488 34.8544 45.9582
1 5.65259 41.5867 7.97417
1 9.5543 19.4532 21.8294
1 2.47897 41.8882 11.9565
1 43.9563 22.8112 0.672671
1 41.5132 30.8111 25.2115
1 0.24244 45.0443 29.8984
1 46.2727 29.3015 27.5867
1 38.8084 37.8024 34.4725
1 40.1354 7.17098 30.9109
1 31.3288 30.4958 41.1307
1 8.70271 25.7495 4.54227
1 37.2327 39.7118 35.5701
1 38.765 39.7648 42.2468
1 7.33014 43.5601 5.02173
1 6.24899 49.6309 16.3414
1 30.1181 27.5302 1.24648
1 5.93972 4.4404 2.63705
1 14.4374 40.5257 9.01793
1 6.35985 48.5886 38.2511
1 5.89276 5.44155 42.8813
1 47.8528 9.34378 8.98027
1 4.76483 13.332 3.6056
1 16.5068 4.13488 1.77623
1 23.3463 31.09 28.3513
1 21.9997 15.0053 44.651
1 45.2334 42.3506 49.4961
1 10.5235 7.30505 38.9099
1 7.06019 25.6876 26.2687
1 35.9894 36.2794 5.17144
1 47.9767 28.984 47.045
1 18.9861 30.2438 38.3517
1 18.2974 3.90281 44.5477
1 6.35267 28.3479 37.0856
1 5.99398 22.5303 7.32145
1 1.71266 25.4493 0.940926
1 47.2205 23.1623 17.5898
1 27.0572 21.8569 20.6408
1 38.4023 8.33581 39.6209
1 4.22393 36.5962 30.6669
1 12.7015 27.0489 20.9087
1 17.8223 8.39846 17.8325
1 42.8187 28.7203 34.8641
1 44.7883 34.581 3.67468
1 10.7802 47.7719 17.9599
1 39.1638 20.3241 19.6095
1 36.1673 4.93289 14.6122
1 21.3135 34.1313 18.6334
1 33.9594 28.4143 48.6155
1 2.71494 28.8046 43.4245
1 48.6678 35.8121 8.62272
1 15.9509 25.7322 11.6467
1 31.1805 30.4065 36.8489
1 2.34521 30.4892 15.7353
1 36.6379 17.9052 32.0736
1 49.4747 15.94 7.33625
1 2.35115 24.5765 7.07334
1 1.51465 40.1996 14.555
1 43.1538 20.3428 42.2044
1 19.7227 5.28372 46.3547
1 8.12077 27.3624 13.4904
1 15.6467 3.12519 10.14
1 26.034 31.77 16.813
1 48.8727 46.5254 33.7534
1 31.3628 40.3812 12.5615
1 5.61222 37.6348 40.8567
1 4.60752 7.36703 25.8722
1 46.4074 42.7736 19.7518
1 21.9599 43.8406 27.8794
1 21.9373 30.3654 30.6628
1 26.9697 31.0084 42.3883
1 41.8665 47.897 22.4899
1 13.2836 3.98557 12.459
1 45.7299 30.544 31.9957
1 0.0219958 24.617 21.7352
1 7.07084 19.8092 22.6764
1 44.1407 35.4712 7.47516
1 7.00579 46.8803 30.7878
1 36.4725 14.9278 32.5362
1 3.8934 33.4862 26.8372
1 0.136358 24.467 44.8485
1 0.900614 19.2302 40.3889
1 26.9987 32.4721 48.0464
1 46.5692 41.9762 37.6222
1 19.9664 1.71823 43.8109
1 15.2588 8.9522 0.35088
1 43.859 9.57218 44.5016
1 26.3919 38.1502 44.0058
1 33.9437 11.3389 11.628
1 9.09203 37.4119 6.01678
1 48.3289 42.8515 33.8041
1 3.97845 10.4438 11.7352
1 12.7107 39.3876 49.277
1 10.4026 7.07597 11.0866
1 6.92484 31.5163 11.4463
1 46.9249 21.5646 19.8054
1 20.4739 10.5228 21.578
1 8.91951 19.8806 35.9023
1 45.9074 24.2811 43.5939
1 32.669 49.0139 8.9631
1 6.12877 1.81197 47.0163
1 10.921 38.4781 22.104
1 27.3629 37.1989 17.6796
1 4.38455 23.2482 21.8464
1 11.2042 9.00393 42.4493
1 13.7375 15.2013 10.3745
1 27.7882 38.3269 14.435
1 23.5745 26.38 11.0552
1 36.0758 26.3394 30.0457
1 42.1947 46.822 49.0665
1 16.2332 42.7925 46.6597
1 25.5119 37.3424 46.3977
1 5.80747 16.9238 37.753
1 11.7829 40.5456 25.4809
1 13.0454 4.2296 3.24154
1 20.6032 23.602 26.8697
1 43.5623 34.6805 45.1638
1 16.8051 48.7115 41.458
1 24.5916 44.9512 49.6485
1 28.6236 47.7388 21.1637
1 14.4162 30.982 15.2541
1 16.1528 42.3793 0.106259
1 16.7065 39.1081 26.6996
1 13.2872 40.1416 13.855
1 45.9155 43.6144 10.8172
1 7.61271 9.77514 4.62943
1 21.0045 24.2559 44.5207
1 22.5581 37.776 30.2266
1 8.8204 25.6794 1.31706
1 2.14108 14.7796 21.1545
1 5.27291 11.1605 45.7443
1 1.92091 32.4047 4.11184
1 5.94589 18.1732 14.4164
1 10.0587 11.103 26.5629
1 40.7353 36.2672 12.8393
1 6.97444 25.3549 34.1683
1 7.98202 15.8045 46.4911
1 13.4725 44.1764 17.3127
1 48.3149 40.1288 1.9637
1 31.8552 29.5618 1.06038
1 1.92365 25.6988 32.8522
1 32.2512 43.782 20.3579
1 9.23567 9.56648 49.1051
1 14.8414 35.9728 44.9835
1 17.7248 41.961 5.89058
1 23.729 1.08238 9.15337
1 31.8667 45.4117 25.1764
1 44.3376 38.7057 3.51749
1 18.4179 41.2518 27.3809
1 6.32487 5.42107 18.3003
1 11.0597 26.205 5.98356
1 39.5714 39.1828 39.1819
1 41.05 8.4008 41.7499
1 37.9466 11.4964 34.2683
1 20.1353 39.8969 28.9253
1 22.3181 45.0946 21.2877
1 7.92208 23.4706 16.804
1 9.48195 39.0939 26.2168
1 24.3471 20.6645 39.0257
1 46.6954 -0.101502 30.1918
1 40.0431 7.56437 13.9714
1 32.7998 45.7772 34.3798
1 37.4623 15.8467 36.6412
1 43.2102 39.4802 23.3259
1 18.5938 15.8273 32.902
1 36.9664 24.6058 32.2451
1 12.1573 43.6469 37.7572
1 29.6356 10.7641 2.87843
1 44.0904 28.221 17.7748
1 38.6242 29.079 22.1514
1 35.8978 29.1596 46.6715
1 34.4038 44.3354 21.7811
1 42.111 2.27229 35.1747
1 30.3639 6.15086 36.8652
1 16.8506 26.3413 15.7493
1 20.3068 19.5913 21.9686
1 12.4127 26.8324 25.9849
1 47.0426 36.5295 3.48409
1 15.8599 40.6113 23.9681
1 43.0706 22.1849 27.6781
1 13.8276 32.5309 17.1153
1 29.6773 18.8822 24.3638
1 37.9886 45.4042 13.1916
1 16.6333 25.7505 29.2457
1 7.69578 17.0508 42.3758
1 34.1956 43.0046 2.03562
1 30.1414 12.2334 10.62
1 46.5235 34.1055 23.5718
1 37.9397 28.288 1.12493
1 31.1633 39.5877 18.252
1 24.3282 16.768 23.8794
1 46.4602 13.3344 23.2814
1 10.4101 14.5299 23.1351
1 8.7523 38.8256 20.2911
1 24.242 44.2211 42.571
1 21.0012 13.2117 22.3638
1 47.2314 44.6421 40.872
1 25.7627 32.2842 35.4751
1 38.5724 27.8112 39.3261
1 1.28684 2.29579 10.6192
1 23.647 30.5604 23.0285
1 28.3909 44.0683 43.41
1 31.8454 5.02713 5.43705
1 1.33869 6.59211 1.5119
1 43.1879 28.5862 9.78563
1 2.86297 36.0789 28.3182
1 12.1126 37.7698 42.296
1 24.8461 45.9217 44.6056
1 20.138 34.5097 6.86612
1 47.7069 31.1474 3.86333
1 9.10057 2.26464 0.781339
1 28.4031 23.4788 38.4443
1 4.70754 22.9487 0.616238
1 16.1951 37.1593 49.0142
1 49.1647 30.1882 13.5251
1 2.28882 23.0562 20.0362
1 49.2967 24.9687 17.5734
1 1.3215 37.8952 5.62017
1 28.7942 11.6419 37.6854
1 32.0127 9.34968 45.4062
1 32.3124 21.7447 16.8096
1 40.8225 26.2047 3.79715
1 4.83097 20.2358 42.8201
1 46.4891 18.9909 3.22441
1 43.8183 45.96 1.31988
1 37.4223 27.2575 25.1973
1 0.820251 20.6373 19.5117
1 22.7325 11.1533 3.23341
1 34.714 1.08823 35.9652
1 33.25 21.4197 23.5525
1 45.9409 38.2891 36.0235
1 27.5526 9.44087 30.1492
1 42.7777 13.0102 43.533
1 19.6601 12.335 17.3429
1 9.22351 29.9428 44.6692
1 24.4835 30.7774 0.0967434
1 41.6411 38.6995 4.09302
1 20.2707 1.86066 26.1948
1 8.78029 33.5085 24.6551
1 23.6674 17.7844 17.5682
1 15.0466 35.0493 1.0143
1 18.7048 34.288 36.253
1 19.7039 31.8417 48.785
1 3.66157 27.4234 23.4671
1 23.3776 40.7179 23.6975
1 15.1116 17.9802 16.331
1 10.8192 29.4106 3.85172
1 15.6583 18.5315 37.3508
1 40.7229 2.66663 22.8772
1 2.44283 11.3823 44.8945
1 39.5078 3.60188 25.0012
1 17.2608 30.3011 22.8607
1 5.25816 20.6061 33.7854
1 41.42 35.8008 41.2661
1 5.22959 27.7234 10.9085
1 34.4083 45.2137 5.45281
1 7.11587 42.6742 11.9219
1 49.0558 48.0201 45.0927
1 36.2805 32.1801 19.1019
1 18.3261 49.0319 0.794261
1 18.5557 13.633 3.50079
1 3.36478 30.5171 6.81921
1 44.5414 40.2273 13.8102
1 43.9062 3.63752 48.8917
1 8.41888 45.3845 32.8031
1 33.9192 47.6805 0.191513
1 17.78 7.95521 12.8326
1 1.46109 20.2585 48.4041
1 34.9826 39.2615 39.6055
1 24.3701 32.8076 18.8642
1 30.8112 43.5074 31.8749
1 44.6909 28.9691 25.4719
1 42.926 23.4187 47.8009
1 46.0516 37.9748 5.6673
1 47.2866 22.2488 47.9361
1 31.178 3.76321 28.5451
1 32.4057 43.2992 27.1486
1 25.9903 26.4667 9.35851
1 8.04444 1.20466 30.6438
1 23.3483 29.7652 9.51149
1 13.6736 42.6869 27.086
1 43.4339 9.84103 26.3449
1 37.4948 15.008 26.9661
1 5.33986 42.9104 20.7362
1 9.38861 48.9813 21.2237
1 14.7344 43.1022 24.6362
1 17.7329 34.146 25.752
1 3.10427 44.2429 34.3604
1 8.06796 32.9091 37.5999
1 0.786876 42.2742 29.6799
1 19.5599 12.2486 30.7
1 49.0546 2.89712 6.11946
1 1.24467 0.0265078 8.89855
1 18.2376 33.5865 1.51357
1 49.1419 13.9475 22.1805
1 21.4973 18.649 27.3646
1 4.31131 9.50279 9.17201
1 28.1258 49.129 19.0327
1 4.17828 26.4341 31.1454
1 19.3114 39.9478 47.3264
1 43.2414 39.2281 43.3814
1 17.045 7.94226 33.8618
1 35.1164 30.7262 9.82962
1 41.9301 32.6138 35.352
1 40.6732 28.0386 43.8848
1 40.3218 43.5128 3.21335
1 11.333 4.92141 29.5642
1 7.46991 36.7845 16.5657
1 0.282858 32.6863 44.911
1 25.0446 27.1 43.2626
1 32.7847 16.1515 7.8219
1 3.7665 3.61519 47.2808
1 16.2483 3.8779 24.5719
1 35.3002 37.7333 35.9841
1 27.5178 24.3524 13.1892
1 9.14721 40.7105 42.503
1 20.6399 12.8876 6.57043
1 29.0584 17.6883 1.52049
1 7.71944 29.9884 28.519
1 43.3058 44.5867 41.4159
1 17.6575 10.4464 49.0665
1 31.5159 33.0826 11.2064
1 43.9707 41.9181 6.64057
1 7.99879 17.6151 30.508
1 35.9997 2.29625 15.3749
1 25.3648 46.6403 38.1391
1 18.7727 4.79295 27.885