4096
 Atoms. Timestep: 380
1 42.0251 18.7626 38.4662
1 10.0275 8.8737 3.11629
1 23.4645 9.63625 16.46
1 31.0122 2.32748 44.2361
1 19.4905 7.87575 24.1389
1 39.3 17.6034 25.1656
1 22.6746 2.91983 31.2061
1 47.1205 18.1017 44.3596
1 3.18694 9.03535 28.3576
1 24.6937 4.81133 16.1643
1 13.505 6.5658 0.856217
1 27.0035 29.745 6.04401
1 41.9408 20.8926 35.471
1 20.0625 32.8717 16.9845
1 34.0984 32.0158 2.91473
1 36.829 11.0229 12.0506
1 48.0911 3.13052 47.9239
1 45.3941 4.59993 19.1675
1 8.05276 23.4518 35.5905
1 7.30051 32.2924 14.0145
1 43.4403 12.4076 17.5255
1 25.1833 38.6361 20.041
1 15.4542 4.97743 49.2323
1 31.2341 10.1495 5.79006
1 45.504 6.26736 9.85746
1 11.9904 10.1244 4.86295
1 9.28832 18.2963 11.442
1 2.4761 10.2906 21.1596
1 17.2501 3.96902 42.4433
1 13.4902 38.5958 47.6972
1 39.1869 43.1263 4.38747
1 34.3392 10.4566 0.670978
1 40.1692 15.1926 29.6824
1 9.06101 1.44638 17.4791
1 4.72302 45.7676 43.2609
1 38.6906 46.8596 45.5138
1 46.4532 41.9423 44.5536
1 22.1177 11.833 41.4079
1 12.5519 20.2966 39.8588
1 2.83004 28.8531 10.2914
1 24.0158 38.9421 43.5328
1 41.4543 27.231 27.8579
1 23.5413 6.32809 18.4624
1 20.6356 37.6696 4.05584
1 13.2318 23.4184 7.7122
1 4.29514 47.8818 27.3278
1 17.9505 20.6028 46.5875
1 43.8357 5.99602 3.1592
1 26.8453 5.28916 12.2048
1 -0.188596 13.4054 0.378706
1 1.62714 20.6531 15.3323
1 48.1767 9.89687 44.7311
1 7.91131 19.0461 36.1534
1 6.75495 48.266 34.4451
1 29.1782 40.1184 48.5166
1 24.5877 11.6085 9.41751
1 16.427 6.67172 26.9677
1 18.1051 1.14731 3.59394
1 28.0638 12.078 40.0962
1 8.10838 6.75296 23.1495
1 29.7577 14.233 13.9096
1 5.93858 12.68 21.1484
1 6.67507 12.109 15.3452
1 20.0731 4.18442 3.11833
1 19.6661 36.567 48.7916
1 0.68368 15.1871 42.2349
1 38.5287 43.0105 11.7655
1 1.2253 8.70317 12.1087
1 11.8903 43.6585 10.6405
1 48.3183 0.392243 13.5778
1 0.0895745 38.4648 48.8845
1 26.9615 8.59874 43.588
1 12.5056 35.9302 27.9931
1 45.547 22.3658 49.749
1 46.6059 21.7014 47.1813
1 8.02523 14.491 12.8837
1 19.4667 28.5316 38.8787
1 43.8166 32.3664 33.4491
1 19.4312 29.9395 43.5353
1 11.0627 46.1407 22.2074
1 42.4488 6.4375 30.8389
1 31.9796 36.5633 48.5873
1 4.3091 37.1005 27.6042
1 20.03 13.8865 7.63618
1 15.7181 48.1936 48.2736
1 20.7864 33.7245 36.7936
1 23.3721 0.475458 49.6421
1 30.0889 19.6434 15.9474
1 15.0917 7.42294 5.39977
1 27.6397 16.0626 20.21
1 44.4971 3.70438 8.92367
1 1.63956 19.1558 18.2596
1 19.85 40.9032 12.0832
1 43.7459 6.56081 12.0401
1 34.4827 14.5392 40.3407
1 7.79097 47.5087 6.68903
1 32.5221 24.6255 26.9647
1 17.1131 49.4305 36.8579
1 40.1203 18.4535 7.45641
1 0.933173 9.28885 5.68449
1 41.8981 3.8193 45.6683
1 33.0744 34.3339 47.0857
1 3.42338 13.8927 41.7006
1 22.7664 18.0773 17.0201
1 8.09418 30.9583 8.727
1 40.3247 15.7892 42.8519
1 37.9006 11.5345 9.08782
1 20.3041 20.236 24.2052
1 31.8372 23.5526 45.5592
1 28.1345 45.6831 1.71901
1 16.8419 45.18 26.0132
1 4.19147 43.6226 32.9684
1 48.7134 38.0622 1.74988
1 0.783231 22.5334 21.5659
1 20.5816 0.755782 31.6974
1 32.5028 6.17187 4.21624
1 16.9059 16.8839 5.09012
1 10.6366 21.8109 44.203
1 31.5653 36.5603 12.5742
1 43.5035 48.9914 29.4514
1 11.7957 34.7955 19.1027
1 10.4839 10.7432 30.4846
1 27.2305 34.2659 14.5804
1 11.7807 24.8733 0.206343
1 0.0747053 44.6218 25.1779
1 44.8279 17.1944 10.8484
1 11.6783 47.6329 0.483198
1 5.77297 44.4652 7.83202
1 22.9668 22.5889 12.2078
1 34.1484 34.5433 31.1161
1 45.4332 8.26319 35.3288
1 17.9302 9.89931 48.3806
1 48.753 32.4728 40.6733
1 7.84326 43.2833 29.1319
1 6.2046 39.1728 14.7292
1 40.2049 5.56679 4.63517
1 5.84899 48.7992 4.55766
1 25.3144 30.6639 3.67093
1 35.3573 43.0298 29.1631
1 27.1388 38.1954 39.8232
1 15.8756 24.2734 31.4846
1 25.5973 1.27654 17.5665
1 13.4134 30.9528 13.4832
1 4.3053 4.14312 42.6277
1 31.3279 18.5351 47.8447
1 44.5437 33.5925 17.9141
1 42.9846 11.955 48.6372
1 27.4792 19.6752 13.2087
1 0.977384 35.4066 18.0291
1 36.7335 19.8192 10.3919
1 3.59765 17.1553 13.5865
1 39.5044 47.0904 49.1887
1 13.1009 25.7011 19.4212
1 29.9004 46.1632 14.6455
1 5.7288 15.5302 42.3007
1 20.8502 38.5915 36.3506
1 2.89179 30.6739 31.1663
1 32.8524 38.2151 39.5286
1 10.7875 39.2456 26.1318
1 28.3497 21.5475 21.8884
1 12.7781 6.49683 42.8001
1 8.34959 0.55543 20.0741
1 21.0345 39.3553 18.6927
1 7.93175 12.4105 48.074
1 3.34974 19.3666 48.6644
1 40.5916 5.65893 8.68524
1 30.1444 23.4693 30.9941
1 29.4407 49.3122 15.807
1 11.5339 47.002 43.5329
1 8.80913 35.8395 19.3135
1 46.0963 -0.3185 39.1193
1 25.6051 46.5749 10.5284
1 9.93492 21.1219 8.15257
1 41.4099 23.7269 9.90198
1 13.5744 44.3658 2.20886
1 3.02703 0.387799 30.896
1 24.4164 14.5137 38.9363
1 7.72884 33.1649 6.19661
1 39.0497 21.549 40.1236
1 27.8164 3.90107 35.1709
1 40.8292 12.615 17.8164
1 16.0717 27.2574 35.5313
1 48.1643 9.64354 41.6536
1 18.4293 2.07099 48.9207
1 34.6329 22.6697 45.9067
1 15.8488 23.3499 28.8613
1 46.3682 40.7311 29.3854
1 23.3683 6.38988 13.9263
1 7.23971 8.98607 26.4256
1 11.6289 14.7914 14.787
1 2.38545 12.8698 44.4929
1 24.0765 13.1182 17.9876
1 2.97642 47.458 17.342
1 7.95253 45.14 27.4079
1 44.3556 47.7528 5.70873
1 4.27836 19.5856 46.2413
1 0.707795 15.0043 28.9827
1 46.5228 18.7747 24.918
1 3.68664 1.7755 2.761
1 31.4805 10.6084 13.5899
1 30.3292 19.7294 25.6477
1 33.3615 5.30709 -0.401286
1 19.1909 5.84792 32.6263
1 6.52646 38.4365 22.0547
1 24.2086 18.4215 36.5411
1 33.2612 5.45959 36.9731
1 13.2197 10.4159 33.1545
1 23.9439 34.8839 9.98814
1 41.9856 13.7755 36.2178
1 28.2948 10.5133 5.74005
1 45.7753 48.8847 33.5281
1 13.7168 42.7302 32.0932
1 47.6222 8.0241 18.5157
1 2.41702 14.8632 38.9266
1 0.762212 23.4499 15.52
1 5.94537 41.1393 42.3548
1 24.6121 28.7454 13.4371
1 16.3003 2.82697 0.37036
1 34.1577 24.2993 12.5394
1 3.23859 42.3089 30.8438
1 26.5361 0.439964 32.4317
1 29.4935 8.55009 20.6488
1 49.5691 26.292 24.7021
1 39.332 21.1144 26.5203
1 47.1995 18.7216 39.0225
1 12.802 29.3746 18.8978
1 46.6754 29.3213 31.5989
1 34.4356 32.1241 24.5788
1 13.6121 36.9713 19.1567
1 4.63094 17.7826 40.6833
1 37.0168 6.93455 5.65377
1 35.2337 34.3457 28.5018
1 1.96956 43.1829 17.3489
1 21.582 22.462 20.8897
1 16.121 9.02304 40.1864
1 16.3073 48.3502 26.4767
1 7.07952 9.76451 19.1052
1 40.139 32.8728 0.115644
1 4.65686 37.3351 5.8131
1 49.5393 12.9971 30.5781
1 10.4915 18.7446 18.2766
1 9.70832 4.10083 24.3615
1 42.7185 34.1643 7.56591
1 46.7573 36.7195 22.8985
1 4.59789 43.2351 38.736
1 38.6366 27.7944 31.2944
1 24.1325 43.3427 18.2621
1 27.6844 38.2879 46.904
1 11.5895 1.68703 10.2758
1 44.3866 19.5235 5.40174
1 16.9216 14.1187 4.88306
1 4.63196 1.57882 48.9274
1 7.27571 1.37639 15.4663
1 21.1715 33.2689 43.247
1 42.8433 43.2785 32.1759
1 43.4302 31.4094 38.4852
1 6.88876 6.60855 30.3957
1 8.60316 22.0812 23.3393
1 10.4673 3.3748 1.61166
1 46.0859 19.0557 46.5847
1 6.03613 4.76595 0.864046
1 30.1719 28.5644 37.3126
1 31.4668 5.86812 22.9435
1 43.2558 49.4972 14.4997
1 18.7977 6.793 17.2536
1 14.6468 29.5314 7.03517
1 4.57218 10.106 47.1356
1 22.2687 37.2627 31.6098
1 9.04679 10.7573 43.6131
1 1.09732 19.0525 31.8531
1 34.5716 48.7455 39.5799
1 41.2526 42.4222 46.6162
1 6.80427 32.8452 41.0665
1 25.476 36.9377 0.502352
1 49.1059 25.833 46.0333
1 7.33761 25.4203 49.2922
1 19.7332 14.5425 17.9833
1 21.2767 1.76115 35.1174
1 25.4869 23.0209 28.9322
1 42.5912 2.99327 35.5848
1 13.8857 3.5565 17.1194
1 17.1244 12.9366 23.8887
1 49.0143 45.6829 2.52947
1 1.28062 32.8659 14.7899
1 5.95418 24.08 28.8166
1 3.1614 31.7996 33.7706
1 31.3638 22.1343 38.7331
1 1.01214 28.2754 14.3191
1 24.5851 1.37695 9.30365
1 6.17074 28.5268 2.24749
1 9.31136 28.5413 22.4731
1 43.0671 14.801 48.564
1 13.161 20.1771 32.2918
1 8.80307 42.6846 17.0394
1 13.1614 25.327 21.9984
1 8.03315 19.0194 25.5851
1 37.7824 42.5467 43.645
1 33.5533 12.6348 24.1048
1 36.1514 17.3423 28.7464
1 21.4112 8.06294 15.5017
1 47.11 40.7375 1.99122
1 31.9398 15.9903 27.4158
1 6.45765 31.2016 38.52
1 18.9454 48.3566 39.6483
1 7.062 37.2022 6.99401
1 18.5073 48.9565 12.1537
1 9.06686 5.79909 0.48475
1 40.4775 8.91975 32.0179
1 19.2853 12.5851 22.1784
1 22.7544 6.1312 10.4331
1 13.8718 45.4737 6.11234
1 32.5007 37.2872 43.2336
1 40.0224 48.9115 46.1858
1 20.91 1.69984 15.3766
1 3.33754 29.873 22.9758
1 13.4828 37.7584 4.64794
1 28.5279 28.0407 8.02676
1 21.942 31.1487 36.7295
1 12.0724 22.1056 36.4581
1 34.1228 29.1843 41.525
1 35.0512 35.2022 25.6974
1 1.78919 32.8142 8.4946
1 17.2687 34.2242 13.6136
1 18.7499 10.8304 46.0898
1 28.5735 30.0226 41.2834
1 1.39215 9.75185 41.237
1 26.6937 38.4648 22.761
1 3.33577 23.8329 2.5078
1 33.4691 4.48884 24.6321
1 6.93245 17.1166 19.063
1 43.6223 38.6738 26.0074
1 3.87868 21.0632 25.0332
1 14.2366 19.1265 23.9836
1 44.0409 9.30908 11.3437
1 31.195 8.24319 46.9928
1 25.7804 15.8937 47.2988
1 40.1961 26.7354 4.63776
1 24.7534 5.98662 45.0092
1 10.4639 17.6572 46.6371
1 35.0564 38.0319 26.6398
1 31.6707 3.3541 4.18333
1 10.5857 49.5506 2.65128
1 26.2031 27.9978 2.43431
1 3.72004 34.3644 32.8218
1 12.3986 35.2196 13.3851
1 18.9541 47.8455 17.8998
1 20.433 3.5433 11.4331
1 3.3436 34.8221 23.0234
1 31.5911 45.4525 18.3151
1 6.784 21.6634 25.6989
1 30.4674 10.3919 26.453
1 38.7777 11.0653 35.6999
1 44.6914 25.4223 40.4094
1 9.50494 47.9044 48.6504
1 11.5489 7.65002 29.3508
1 45.3722 2.74988 23.972
1 20.4926 9.73617 8.83856
1 9.15669 35.9878 14.8456
1 18.3172 17.5174 36.3188
1 34.9706 36.2654 37.1637
1 12.2645 14.0275 2.12353
1 15.0471 32.6241 26.8084
1 45.2904 13.9969 14.0719
1 23.7418 15.2083 15.3148
1 47.2656 18.6125 20.8701
1 16.1003 28.532 27.5958
1 46.2929 38.8238 5.61456
1 10.3116 48.8594 35.1411
1 25.9264 40.3601 17.9675
1 1.04852 47.9272 27.2985
1 1.99681 30.6318 41.4768
1 24.4978 48.3541 8.63632
1 40.4076 12.7191 9.76063
1 45.8237 13.288 38.0683
1 10.4682 29.8846 15.256
1 9.50103 11.3992 19.924
1 7.06708 41.9187 4.85114
1 5.13472 9.0111 0.13461
1 18.5977 9.55408 20.8794
1 43.9984 12.6307 20.2781
1 41.005 15.5037 20.1646
1 33.544 4.60093 28.6107
1 12.7926 17.5516 38.3578
1 42.7674 5.41597 7.53716
1 49.0206 7.55541 26.3864
1 24.3174 36.7313 35.0744
1 11.5585 5.60915 45.0653
1 6.83232 18.5372 10.3379
1 9.30281 8.60014 42.1178
1 12.6493 11.2264 0.792973
1 42.9145 27.0582 1.45783
1 15.4048 32.3623 47.8637
1 29.6385 45.4514 4.29584
1 32.911 7.33625 45.1009
1 8.68915 6.18074 11.2185
1 13.6757 23.7294 14.6068
1 20.3817 27.7833 6.06495
1 27.7761 3.93802 24.6658
1 48.5991 45.5304 20.0652
1 11.8915 13.8145 26.9924
1 14.4241 1.02579 40.3179
1 47.5114 43.8695 24.1134
1 4.95582 10.8369 22.5241
1 25.455 17.749 45.0938
1 13.5934 8.57046 11.1039
1 7.24825 8.92722 46.9447
1 49.2022 24.4962 12.382
1 22.1699 4.15231 39.3816
1 44.2524 49.4248 24.361
1 20.9712 12.0958 15.0957
1 3.59451 13.9481 30.9929
1 2.60338 5.97091 20.3374
1 19.1365 40.2939 20.7048
1 7.22986 38.9222 45.9336
1 46.2646 0.10634 36.3098
1 0.542264 21.9298 39.6743
1 18.068 48.9239 15.4264
1 22.899 37.3505 48.6462
1 22.823 11.3385 29.5818
1 10.7101 38.3238 28.8004
1 3.18818 3.49072 23.6962
1 32.6544 16.3439 32.9342
1 35.0409 40.266 31.7144
1 8.55681 4.70766 13.5657
1 47.059 33.437 23.5531
1 11.1702 35.3688 35.746
1 13.028 4.49254 28.5681
1 18.2432 49.2059 9.20531
1 44.3297 45.75 32.058
1 39.122 23.9059 47.5516
1 19.0032 39.2973 39.1926
1 35.777 44.2134 13.6815
1 38.415 36.4243 11.1842
1 18.0836 39.594 4.9683
1 41.5998 4.86354 22.079
1 15.9852 49.4332 4.48372
1 1.23953 35.1294 39.8543
1 25.5897 17.3241 16.6704
1 5.92143 15.2321 27.3048
1 49.495 0.839237 15.9083
1 5.63547 35.1938 34.4997
1 7.06347 39.181 8.96956
1 7.95468 5.70078 17.9021
1 13.5857 4.38002 20.104
1 26.0527 7.21623 27.4713
1 23.12 15.9446 27.9971
1 9.02262 13.4816 34.2662
1 19.1137 22.2919 48.6184
1 40.6854 21.388 3.54967
1 28.1888 39.3221 32.8614
1 2.19664 1.60019 19.3107
1 16.3766 1.1456 24.7291
1 5.3799 3.00666 46.6772
1 30.2682 18.0422 34.1762
1 35.6458 9.96969 27.6788
1 46.7097 36.1753 38.8216
1 5.91814 36.5624 43.0016
1 15.7696 46.2181 30.5431
1 30.5493 46.6733 29.7946
1 32.9064 7.01138 25.827
1 29.8438 7.37203 29.8107
1 11.0166 31.127 42.641
1 37.8123 1.14974 45.8431
1 41.2489 1.54454 3.76436
1 27.9185 12.9082 34.1197
1 37.6817 13.0801 18.146
1 19.8505 6.0463 44.676
1 29.6546 30.9879 25.7578
1 22.0688 30.1135 5.0603
1 30.0303 35.3557 34.5316
1 33.9864 21.7678 13.3625
1 5.51545 11.3265 7.79551
1 30.8639 27.8921 18.311
1 43.4829 46.0561 36.2352
1 38.0233 28.5381 10.2608
1 2.861 9.08911 16.6879
1 22.9535 40.0938 47.9158
1 48.1553 1.55859 29.7648
1 15.2916 2.37272 7.91796
1 45.9169 10.7913 46.2194
1 13.8418 15.2491 34.6302
1 18.1742 29.5486 18.5431
1 29.4038 0.409937 38.8112
1 12.0537 40.7122 30.001
1 6.01561 21.2262 44.5326
1 0.723613 28.776 17.0703
1 43.8391 23.6333 16.8453
1 10.5852 25.3261 34.2572
1 32.8259 14.1392 47.6975
1 12.6652 34.7983 40.9844
1 29.7376 25.6516 7.33124
1 29.4682 10.7112 35.4118
1 46.9687 9.79727 3.1654
1 31.9059 39.7863 2.32487
1 41.8455 14.4334 31.7126
1 33.6937 43.5356 4.79989
1 13.7736 11.2379 43.2321
1 9.00236 8.17325 31.2842
1 11.1294 38.7368 8.38421
1 32.3291 15.9625 9.62742
1 47.6357 5.13653 36.0114
1 4.94846 10.6717 29.7151
1 3.57919 16.4905 49.5079
1 45.5967 47.7995 11.7742
1 39.6463 9.78646 11.42
1 48.7914 32.5808 37.8527
1 13.9344 33.5055 24.4924
1 6.95312 0.365087 9.3325
1 26.4654 12.7485 11.4427
1 27.2528 47.5534 15.2295
1 48.1292 5.89813 10.8373
1 15.4455 8.15848 18.9036
1 21.5613 24.0336 5.33172
1 39.0122 31.1047 20.1755
1 45.428 23.6937 36.4526
1 47.8417 17.1046 6.45913
1 23.7838 16.3841 2.99334
1 27.6232 37.4735 16.2578
1 10.0038 17.6627 2.66388
1 32.9389 33.0084 27.0325
1 37.4345 10.9152 45.9698
1 46.6081 44.343 2.90227
1 10.2525 25.4923 43.4856
1 34.4208 0.102499 5.78268
1 48.9737 13.6259 40.6014
1 26.6108 33.355 25.3488
1 7.8919 6.19754 42.818
1 26.1328 49.1078 43.1716
1 6.09652 19.2128 28.2415
1 42.1961 24.7045 14.8542
1 16.772 14.3327 2.21621
1 42.3789 30.3325 17.8935
1 12.1886 29.3882 36.7446
1 0.265399 20.9604 9.48642
1 43.224 8.91255 8.72653
1 7.43557 21.014 42.1
1 5.83438 4.93392 23.9965
1 19.1999 46.2836 46.739
1 16.7421 47.7147 42.2646
1 15.7783 6.48904 8.20887
1 13.105 6.1049 22.7411
1 42.718 39.55 32.5892
1 25.2946 14.9739 43.1913
1 33.7349 47.1349 5.94652
1 12.116 0.417185 45.9545
1 9.40088 14.4308 5.86141
1 31.8427 7.8565 49.4201
1 16.5051 7.13944 11.2323
1 47.9668 1.48909 26.3167
1 44.602 14.2277 43.7049
1 15.9554 47.7314 17.9741
1 47.1458 3.79535 25.9574
1 31.2118 20.4371 9.96855
1 46.9889 15.5198 27.8782
1 26.2692 21.4085 16.6867
1 13.8323 8.39108 38.8951
1 42.4848 29.7816 1.36231
1 22.6592 42.6541 11.4139
1 48.7253 45.2039 5.67178
1 4.67064 23.643 44.9031
1 47.1895 41.4472 4.63976
1 20.4457 22.4416 11.1425
1 7.00079 36.9678 16.5379
1 21.3125 42.6612 14.2707
1 11.1489 39.464 13.6845
1 8.73388 30.8039 12.215
1 10.3681 22.0119 12.1306
1 27.332 16.8028 30.9957
1 20.9034 0.995546 27.6012
1 16.5937 22.0513 37.4477
1 18.4052 44.9804 6.09727
1 17.7162 2.2212 11.688
1 41.9569 15.0883 6.5519
1 1.47608 38.7047 32.7877
1 30.3313 16.6793 38.3603
1 26.9418 30.3877 14.288
1 6.97082 12.8109 2.68597
1 2.61218 36.5368 49.4862
1 25.7813 16.3101 35.1395
1 2.2328 49.6969 42.6234
1 0.974462 12.0333 47.9984
1 12.1198 13.1709 46.3755
1 4.568 16.977 2.29198
1 39.0273 3.01938 37.6937
1 49.8735 41.1675 0.0513869
1 19.2919 28.4302 46.2795
1 28.7329 40.4818 28.8466
1 0.62055 29.7354 22.7453
1 17.6888 0.284116 32.0934
1 18.5289 45.1396 39.9179
1 31.9863 7.39997 6.46025
1 18.0235 36.2603 19.5956
1 1.21836 13.6008 11.4607
1 12.4686 31.2162 48.5891
1 38.9656 3.52178 45.2389
1 29.693 22.4195 4.60767
1 28.5764 11.7205 3.42712
1 36.9277 10.9375 38.8984
1 35.5164 0.988735 44.117
1 9.76549 23.159 41.8167
1 23.4378 19.1114 7.25715
1 44.5118 27.2857 3.43517
1 45.9271 5.81312 47.9484
1 45.4471 1.33826 46.5314
1 6.45025 16.9146 13.2287
1 37.9632 31.3879 40.6332
1 21.8597 38.8565 27.5051
1 41.112 35.2708 31.5384
1 23.4266 29.8873 40.744
1 24.367 21.9358 20.7009
1 24.4266 43.0905 7.46466
1 19.198 14.2734 15.1156
1 30.3888 14.1192 21.4135
1 1.65661 4.8314 0.262624
1 1.09031 18.552 11.3627
1 41.106 3.88004 17.1012
1 9.68769 26.6163 3.61473
1 30.3652 23.5368 40.8528
1 33.5096 19.7209 36.3935
1 28.8175 18.3479 6.7348
1 3.86553 25.2613 38.0754
1 36.4616 17.2226 9.96097
1 40.9026 13.4165 45.7835
1 15.4198 6.90851 45.4187
1 44.2505 3.10466 30.1373
1 14.9067 17.295 17.8936
1 15.9288 37.9096 30.3187
1 37.9387 23.5257 38.2043
1 48.599 27.1011 42.0449
1 46.9614 7.11575 33.1493
1 14.6556 13.2202 6.08095
1 49.0358 39.6664 31.4546
1 26.8202 9.79786 34.7907
1 5.49158 19.5365 35.0563
1 44.6876 32.0289 43.7017
1 48.6815 10.7668 29.4902
1 32.802 12.1374 4.15485
1 45.9153 40.3282 33.539
1 27.3837 25.7628 42.8085
1 49.1673 29.0043 49.0815
1 47.7325 12.839 25.6231
1 12.7133 9.22995 7.50059
1 46.2185 39.7542 20.344
1 42.5224 43.1303 8.1429
1 18.5214 36.2535 44.5524
1 8.61869 25.0078 46.8164
1 20.0344 33.6846 33.0272
1 3.2677 14.9184 3.85645
1 18.1482 23.0116 32.4228
1 42.6471 11.141 36.1105
1 14.3313 20.5841 12.4021
1 6.9124 13.6445 32.6011
1 22.6678 20.5153 43.0667
1 42.4346 4.36721 37.9485
1 17.2216 41.4934 38.9395
1 25.8628 27.8939 24.241
1 0.321607 11.6929 37.0942
1 35.3577 6.81207 21.9071
1 10.3393 41.2502 43.1264
1 39.5398 26.6491 11.9587
1 12.9155 2.08936 47.607
1 26.1209 47.0589 39.3782
1 29.6373 9.09251 15.9679
1 11.6472 10.8842 45.115
1 8.45088 25.4159 18.4738
1 1.62205 25.06 18.8923
1 23.2369 37.752 2.54594
1 17.1012 24.0325 22.3572
1 15.4728 9.53555 34.8358
1 28.2347 34.7242 23.7569
1 4.60838 34.4833 37.5897
1 32.221 19.3692 30.08
1 23.1187 46.1753 38.5191
1 23.4784 12.7037 14.3538
1 28.7325 15.3324 6.82457
1 44.6217 3.25931 14.8363
1 0.329432 34.0292 42.793
1 37.2639 32.7386 32.3017
1 7.57627 0.389795 2.67071
1 23.0278 49.1229 19.0528
1 36.2734 1.98612 22.0016
1 28.2432 32.9407 8.58191
1 31.5814 37.538 45.8883
1 42.5509 44.9583 40.7928
1 32.1451 25.8481 5.74175
1 1.22419 27.7696 26.6357
1 48.8124 14.5147 37.6671
1 11.2029 20.4782 48.735
1 24.816 4.55321 47.9819
1 8.86827 6.16481 34.5538
1 4.76472 28.981 14.1662
1 23.3928 40.9736 9.12186
1 43.9031 9.44782 43.5434
1 19.2071 32.7193 30.3926
1 4.07655 36.9751 30.4953
1 8.8621 13.7934 23.2999
1 6.95581 32.4056 31.3944
1 19.1107 42.1285 30.1533
1 17.9369 30.422 10.9356
1 0.708377 41.7457 39.265
1 33.6497 13.6992 44.7054
1 12.1598 31.0074 6.07956
1 14.295 12.212 48.4523
1 47.6977 48.4366 10.0685
1 42.1385 7.44372 41.4195
1 38.3807 37.9612 18.4656
1 10.6156 7.62231 8.2487
1 29.5825 41.8716 23.7131
1 7.89806 34.0581 10.859
1 2.39603 1.40653 16.2119
1 3.88973 34.8124 6.08549
1 3.11475 32.7124 21.0922
1 2.09585 14.974 33.7151
1 15.9311 47.3233 9.76663
1 15.315 9.66713 47.9444
1 19.2907 15.8503 1.69142
1 33.0793 2.12836 30.5043
1 40.992 40.8113 41.8575
1 44.229 32.722 40.972
1 40.7769 15.3232 17.1307
1 10.621 35.744 43.06
1 9.85273 9.76855 46.8805
1 49.1582 7.25687 45.9556
1 1.66687 5.33963 4.64269
1 14.8477 38.9829 6.91305
1 17.7923 26.8884 48.0715
1 30.0164 37.528 42.3693
1 33.074 11.2459 45.5371
1 4.32593 49.4037 38.0149
1 10.0933 48.0856 11.0194
1 46.6381 12.1731 27.919
1 1.10618 47.0138 40.7705
1 5.75992 28.3332 39.9722
1 16.2939 35.8769 34.0736
1 47.3091 7.29485 14.62
1 22.9523 13.0725 23.8604
1 4.11652 36.3865 15.3136
1 14.533 26.3128 26.0783
1 41.0186 31.2097 29.8129
1 38.2717 31.2736 11.238
1 25.0256 21.9275 33.7422
1 14.7389 45.552 16.3197
1 37.2765 32.6807 27.8666
1 2.08029 2.70138 42.1058
1 41.2912 46.5049 11.3422
1 20.3337 25.7339 28.3875
1 18.8898 0.0227364 34.6907
1 27.9141 26.9673 22.5624
1 44.7897 24.2831 13.0156
1 20.1923 9.58458 38.175
1 38.5395 20.8282 1.9895
1 3.90854 6.86131 7.69456
1 37.0798 27.1815 18.0258
1 12.2884 34.057 5.26119
1 28.9318 45.8035 33.0545
1 38.1596 43.5256 26.3654
1 20.6794 27.3711 26.0637
1 4.14682 6.11244 34.1626
1 15.3119 48.9735 34.4453
1 0.52865 27.621 1.21761
1 36.2419 16.6682 43.6015
1 7.38834 11.7079 24.5025
1 30.4764 8.28139 41.0128
1 42.6835 41.3796 18.6847
1 48.8833 0.661156 40.4425
1 41.6227 47.9107 15.983
1 24.9561 44.2829 35.9199
1 2.69076 29.9323 12.785
1 31.8272 0.510637 3.87553
1 40.614 9.62758 34.6499
1 34.2493 40.0485 0.929524
1 49.0406 22.1869 24.0233
1 28.6742 45.4885 36.2854
1 34.083 18.685 47.6547
1 19.3995 1.57979 6.19289
1 8.2257 29.1509 16.561
1 29.0831 19.6997 2.15185
1 45.9592 28.817 20.0937
1 47.1201 38.0847 32.7375
1 29.0563 48.1536 19.2909
1 44.4003 37.0786 41.5582
1 45.6449 36.0214 18.8125
1 2.74162 37.8546 11.5127
1 39.7735 44.5779 47.2867
1 12.3951 40.6119 38.0809
1 35.2335 35.2247 45.1104
1 12.4476 4.39578 24.746
1 36.9063 3.04432 48.3397
1 9.11472 30.9821 0.546842
1 13.6852 36.8084 1.77322
1 43.2783 21.6876 13.6741
1 44.3161 10.5738 34.1698
1 2.41455 14.9122 46.7618
1 44.9203 29.6371 10.4245
1 36.9064 43.2958 7.67766
1 20.9722 15.2395 34.8956
1 10.0379 15.7915 10.9749
1 24.151 34.631 25.3309
1 33.6787 20.5266 0.930803
1 13.1348 12.0562 39.0067
1 17.1801 2.48105 22.0621
1 47.2861 26.911 29.9156
1 9.29739 42.572 32.4986
1 4.46652 26.7309 22.4762
1 16.9084 27.8584 0.794317
1 35.3864 22.8046 5.96312
1 11.9315 5.56365 16.6737
1 3.09517 49.1499 4.02526
1 40.3294 5.90267 25.145
1 27.0767 20.5007 32.393
1 44.3847 0.345479 42.826
1 29.3169 3.80666 27.2989
1 31.9348 29.3974 46.3717
1 29.4603 9.83124 11.7468
1 7.91562 38.1869 11.2171
1 5.47411 12.2499 27.1843
1 32.483 41.1449 12.7165
1 11.8709 10.7848 11.4267
1 2.36678 38.7497 21.8328
1 14.3401 49.4884 19.9104
1 44.9678 25.5622 10.7624
1 15.2838 29.7447 10.319
1 8.88919 20.5472 19.4214
1 15.1983 41.3434 36.3672
1 41.542 22.7182 39.686
1 32.0747 48.3943 16.227
1 1.08794 34.9758 26.0185
1 16.4023 34.4733 17.5503
1 42.265 34.3943 49.2316
1 8.29679 18.0343 47.8276
1 45.4404 21.5253 38.435
1 17.9706 29.9159 30.3868
1 14.5522 48.1036 37.8147
1 44.1191 37.5155 2.44198
1 48.3349 27.0433 17.4538
1 0.492527 21.3502 44.6534
1 28.7065 25.6227 31.0218
1 28.1914 4.93266 9.90755
1 25.7445 38.9002 5.33213
1 18.1656 34.8023 22.284
1 20.1939 24.5068 9.39752
1 35.5917 22.7555 17.9225
1 8.753 17.1324 32.4537
1 20.5264 35.0498 24.6577
1 7.70518 24.0144 39.6326
1 21.1985 39.0218 14.8117
1 40.1448 28.5424 35.5374
1 37.4203 37.1627 29.7354
1 9.44004 26.5932 7.9013
1 38.9341 29.1584 41.7269
1 36.2885 48.8012 2.38674
1 2.09608 4.42523 37.5831
1 16.0571 44.1435 6.6995
1 40.8482 7.33281 14.436
1 29.6871 4.29555 2.48954
1 49.562 1.96352 3.70597
1 26.3926 43.4026 46.761
1 29.4588 48.9304 34.8928
1 34.395 22.9526 20.6611
1 5.31565 7.90352 3.12333
1 0.828277 3.23713 32.9129
1 17.399 6.32456 4.2247
1 2.16846 32.6051 39.5401
1 2.94281 31.9656 43.7499
1 43.9767 20.7091 42.517
1 44.4037 38.362 19.0435
1 11.6926 40.2051 4.10896
1 43.0313 43.2931 26.3873
1 15.7228 22.8354 34.912
1 19.8204 48.9205 7.02465
1 4.88084 28.2157 19.7596
1 35.846 45.7945 26.4276
1 33.861 14.7825 37.7391
1 34.1497 39.8355 37.939
1 15.2295 11.3574 2.85988
1 19.2676 31.242 7.35318
1 47.6985 32.833 48.1015
1 3.18645 2.99434 14.1945
1 42.9247 1.2681 20.199
1 39.2616 48.3174 28.4339
1 22.8436 0.699509 14.1345
1 13.3823 40.2736 8.88928
1 42.85 42.1565 29.8718
1 12.8972 22.6104 12.3212
1 8.43029 7.31326 6.52535
1 29.1631 31.366 33.4098
1 37.456 11.9154 22.3727
1 10.9519 14.413 49.5876
1 24.9872 15.0316 21.8071
1 45.7922 7.94412 22.0101
1 14.2506 25.9936 37.283
1 12.355 28.1919 16.6015
1 8.50885 38.9012 3.03853
1 45.9247 26.969 42.2342
1 40.4361 26.2599 9.36039
1 45.7744 32.3056 8.78517
1 22.4578 16.486 11.9252
1 48.6825 1.3926 32.3968
1 20.7664 27.0166 16.679
1 27.0777 42.2004 19.9134
1 30.142 0.575048 11.2069
1 5.21059 41.9766 11.3062
1 47.5925 9.47497 8.70999
1 49.7134 6.28148 17.9877
1 42.1877 7.12938 26.5815
1 34.9129 37.0222 40.9741
1 13.9194 31.8786 10.5082
1 3.98902 41.7341 20.3549
1 48.0721 43.0578 21.2337
1 43.9626 39.4564 29.9263
1 18.1579 32.2872 2.15151
1 39.1061 36.2214 24.9738
1 25.909 11.7006 2.07039
1 40.2937 40.9971 23.4103
1 10.6925 11.9452 48.5399
1 38.7327 17.6822 44.4217
1 13.6943 44.5436 12.2349
1 36.5387 27.8568 7.78807
1 24.0986 18.626 9.87979
1 20.8676 3.76081 24.8485
1 46.4449 20.3358 16.7993
1 27.4199 8.13961 23.4866
1 31.8611 25.8729 44.2384
1 40.7313 31.0764 16.219
1 42.4764 23.1018 29.3523
1 35.4289 26.589 3.60451
1 17.1836 41.594 13.7854
1 5.40136 28.1429 7.00169
1 19.5753 40.8696 26.0412
1 22.2693 26.8545 33.5319
1 30.7906 29.3301 7.84646
1 3.33194 49.2199 14.8239
1 29.8267 49.1303 47.0463
1 37.9488 0.0207986 26.201
1 39.8858 23.3521 16.1371
1 5.99074 27.5302 48.2409
1 9.15816 8.73308 14.1721
1 16.4153 44.7426 1.41427
1 25.6288 43.4105 21.6715
1 37.8993 30.1105 1.23352
1 7.85748 0.843178 24.9966
1 47.0834 28.7509 38.3686
1 13.2762 31.7259 45.7405
1 26.5381 22.5182 26.2702
1 46.9146 46.9333 26.9431
1 8.06219 41.5856 45.3171
1 0.358367 22.6516 35.2106
1 34.0386 36.0403 0.912757
1 13.0621 19.5015 17.1273
1 18.3504 39.1797 9.74507
1 10.0691 33.0853 48.8973
1 12.1041 28.7902 21.6882
1 1.61962 31.1641 37.0109
1 11.7544 11.8594 7.97378
1 40.1619 43.8434 19.9653
1 18.5511 2.42532 14.4191
1 6.18665 8.8018 21.3307
1 18.2958 26.9885 13.3631
1 41.5659 28.253 8.2025
1 9.0371 23.9714 8.79831
1 29.2351 38.7454 19.531
1 1.01039 23.0886 10.7026
1 19.8675 24.5205 2.23724
1 7.04768 36.6027 30.2541
1 44.1442 30.142 15.1409
1 41.7081 26.5694 37.1056
1 46.8062 34.7589 8.30157
1 36.5392 -0.0421385 48.0839
1 35.4312 0.822611 26.9604
1 7.92742 8.126 16.757
1 22.2773 41.0155 41.6527
1 20.3564 45.5193 17.9496
1 23.7918 48.2914 23.4273
1 17.0228 6.36952 36.9645
1 24.0092 6.29268 1.82333
1 2.20072 36.5781 9.04356
1 16.1385 30.3364 23.4331
1 6.12876 49.0556 14.4519
1 17.5278 14.0269 28.9589
1 22.0991 19.4904 30.304
1 27.6533 35.6606 8.55792
1 45.2326 30.7376 6.67567
1 35.965 27.3947 11.5683
1 25.2487 46.9294 44.5513
1 46.3298 28.6948 49.1681
1 0.0292689 5.13354 48.1254
1 0.953774 40.114 10.7924
1 37.2936 28.9509 35.7902
1 49.0104 35.9855 37.5421
1 32.2588 27.7062 27.6392
1 5.96174 40.1374 24.2699
1 47.2131 11.7887 13.6167
1 42.06 41.7285 36.6115
1 26.176 20.63 10.8127
1 43.9264 8.48006 39.8254
1 0.420589 25.5588 43.7596
1 6.1169 18.4769 21.6186
1 48.5861 24.0073 17.7574
1 5.29463 9.05236 11.8284
1 36.4146 5.6397 24.2695
1 33.1309 41.2237 24.7484
1 4.86083 48.1325 19.4458
1 0.307843 24.0795 25.6293
1 3.87821 25.2454 11.9999
1 12.42 7.95494 32.0924
1 26.0904 32.6954 34.9162
1 32.9337 26.0522 14.2137
1 26.7615 42.6102 11.1191
1 32.6232 39.2388 26.6347
1 18.0801 14.4589 26.0477
1 34.6439 27.0734 19.8965
1 34.9085 14.1875 6.63354
1 48.7119 30.3494 28.8911
1 20.5136 37.1028 22.6195
1 3.54588 19.3688 27.3791
1 0.823881 49.1318 24.0891
1 3.25802 14.7917 15.053
1 37.4269 38.3221 42.5678
1 5.91224 16.6677 29.3331
1 38.5389 18.6677 27.3719
1 33.0328 47.2552 49.0384
1 32.4989 31.4099 22.8121
1 4.37799 47.4802 10.5783
1 48.8315 47.7999 35.7215
1 20.0211 42.3666 40.3086
1 33.5463 13.9048 26.5118
1 45.4296 40.8819 47.5226
1 48.6618 5.50902 24.3766
1 23.1937 21.7274 28.7272
1 13.3001 46.6837 13.9275
1 32.111 21.657 20.088
1 32.5999 37.7443 32.8097
1 46.1251 37.9199 26.7578
1 44.3242 29.7164 23.8486
1 22.0934 24.6949 32.5675
1 39.4556 28.8366 29.0268
1 49.0918 26.6492 39.5156
1 2.18657 32.1696 26.4731
1 -0.179348 47.9545 17.223
1 28.0192 6.65202 25.8
1 37.6921 36.0448 41.2488
1 41.0751 0.792746 7.34831
1 5.21164 23.0598 40.6944
1 33.7648 0.46924 35.0029
1 46.5583 37.3848 3.02496
1 23.4013 47.063 20.9381
1 18.0366 4.47883 23.4454
1 33.0231 46.5299 41.137
1 10.9445 20.0312 10.4501
1 12.4793 27.2079 45.0631
1 43.2586 12.1289 45.2388
1 38.0889 33.6043 19.5059
1 49.1471 19.6871 25.7016
1 16.8995 2.53495 30.5851
1 13.7006 21.4346 19.6646
1 31.4929 11.8295 22.7406
1 4.66432 29.1294 33.6026
1 16.2803 19.6513 7.35603
1 9.58016 28.6886 25.1159
1 31.0019 39.5635 40.7746
1 42.5813 8.25814 1.21076
1 17.3306 49.472 46.0411
1 18.4892 16.0609 11.1582
1 3.75681 46.3566 29.6531
1 30.6473 31.093 5.84165
1 49.4386 21.0985 1.56845
1 18.7502 11.889 8.58869
1 20.4398 28.6522 29.9456
1 12.2725 39.6108 18.953
1 1.21558 9.56173 25.4201
1 7.48662 28.0694 19.3056
1 5.26674 38.7086 44.1504
1 17.6457 48.4648 29.6967
1 4.03459 14.804 7.23602
1 0.874945 20.0305 28.0495
1 46.7396 19.5233 8.547
1 30.2451 35.5902 2.91402
1 5.58203 0.275483 7.0904
1 18.0984 19.6023 38.5472
1 47.0596 29.937 16.776
1 35.3101 8.70163 25.405
1 42.7635 21.9954 49.6651
1 11.7264 41.4057 21.0598
1 7.06399 5.15775 37.19
1 13.4476 30.1035 31.2491
1 3.81766 41.2802 16.2019
1 10.9724 25.3992 10.7282
1 48.2253 38.0543 7.40047
1 15.8752 45.1744 23.3289
1 7.62234 38.1723 36.7758
1 29.2897 33.8112 20.5055
1 7.3801 4.12123 9.89628
1 5.85487 4.75589 19.8747
1 34.1791 15.1725 22.6431
1 45.3378 46.808 38.3366
1 39.3454 18.0358 29.8198
1 45.772 34.3036 11.7443
1 27.8233 22.0513 45.5773
1 17.2984 39.8307 32.5214
1 45.566 2.87326 35.8031
1 48.7476 0.467655 49.8986
1 46.2812 49.1357 29.6997
1 1.47391 3.83098 21.3352
1 18.9741 39.2445 23.2304
1 31.4316 8.31053 38.1044
1 7.74554 42.831 21.4031
1 9.50057 31.3528 3.15589
1 6.06339 30.6955 15.7224
1 8.7445 45.8497 14.2343
1 16.5114 45.098 42.0702
1 38.5184 40.584 19.0842
1 34.9463 47.7387 18.3596
1 48.0554 37.2358 24.9747
1 28.2235 47.6047 21.902
1 11.0047 37.6529 16.3202
1 45.4083 39.304 49.8373
1 25.6999 1.50869 44.5758
1 20.682 10.3678 23.2112
1 21.8524 36.3962 6.64803
1 47.7426 38.4153 43.2253
1 44.1199 1.07546 31.8072
1 34.108 28.7655 34.2887
1 11.5366 43.6558 26.1095
1 38.5407 32.3187 38.1267
1 15.1451 13.6614 43.3632
1 8.47134 16.315 23.9758
1 6.49648 29.8149 49.7058
1 28.9875 34.5613 37.7125
1 43.6786 16.4353 39.106
1 2.16423 7.13243 32.0831
1 21.1828 41.9443 45.3987
1 43.2839 30.1306 31.7851
1 30.4026 28.7525 4.4782
1 30.96 15.648 42.128
1 31.5325 14.2657 34.0469
1 23.7509 42.6809 40.0752
1 3.9544 26.0826 46.5367
1 36.9655 30.5363 16.5196
1 44.1307 22.9243 32.6386
1 12.8251 1.66174 36.3107
1 48.0652 3.47311 12.3988
1 19.9859 36.7658 33.1681
1 44.7176 36.4204 15.0202
1 24.142 43.5378 48.4462
1 18.9803 19.976 4.41967
1 7.87867 33.6165 18.2478
1 0.593701 15.9844 0.108123
1 28.8593 25.4483 11.6218
1 22.6635 29.382 48.8871
1 35.5014 6.51898 45.5291
1 13.4142 43.9965 45.4225
1 4.23394 30.3085 8.38089
1 36.5 8.33322 47.2233
1 16.9996 31.2117 26.0958
1 38.4301 1.09194 7.94491
1 9.22165 25.9593 25.8124
1 7.76507 48.6194 42.6988
1 7.09633 2.83489 23.4427
1 8.18452 0.848402 29.7079
1 45.165 3.05484 48.7019
1 4.17843 25.4265 35.482
1 3.53011 17.3497 25.3898
1 8.2689 12.4473 29.6376
1 25.9073 40.6631 32.6703
1 10.2317 3.03523 27.1769