4096
 Atoms. Timestep: 3900
1 39.5341 20.2892 12.2817
1 18.3974 25.8456 27.3889
1 40.3334 42.3692 30.2064
1 18.1606 39.6722 31.5912
1 2.69961 47.7301 34.5575
1 16.6328 1.29664 40.4975
1 40.237 19.6342 17.098
1 36.3953 4.48472 13.7688
1 37.1491 8.2823 40.7835
1 35.6293 14.8135 29.7042
1 36.6593 18.0352 1.24392
1 28.4325 45.4295 27.0995
1 12.8837 48.3303 4.73187
1 0.101728 30.8249 28.2049
1 34.8949 25.1117 20.5696
1 33.1048 27.3871 7.75899
1 38.2034 12.8143 4.98081
1 11.9841 8.88351 46.87
1 21.89 5.75518 4.62097
1 12.5455 27.7919 48.8672
1 33.6539 7.80301 43.3455
1 22.0304 30.4738 12.3176
1 3.09911 37.0811 39.576
1 4.31755 2.56695 37.608
1 22.1398 6.48705 48.4362
1 12.3987 25.8279 15.4256
1 9.9261 8.45924 36.4756
1 2.22085 18.0865 6.73688
1 15.4613 25.5845 41.0266
1 10.252 12.1277 39.0546
1 21.862 31.5341 44.7376
1 15.422 10.5703 49.478
1 27.5189 47.2932 7.93681
1 4.61167 21.5545 6.28329
1 30.097 48.8299 8.42991
1 0.647382 45.9098 8.34535
1 39.1556 19.0762 49.3855
1 25.0108 19.3799 31.2683
1 6.09189 35.4324 7.32399
1 45.6242 16.628 25.5502
1 21.4129 39.706 42.8742
1 44.7683 32.0244 26.1278
1 45.1298 46.3862 49.3891
1 36.8404 34.3504 40.1647
1 8.12385 1.12509 6.15161
1 21.862 28.9481 43.2483
1 44.7552 46.0428 42.0734
1 37.3906 3.51265 22.7485
1 5.6233 43.5468 25.8615
1 20.236 43.6268 5.89865
1 12.6498 6.85758 27.0528
1 45.3077 29.8562 19.9655
1 18.7278 17.0069 35.0991
1 3.28111 22.4892 41.3566
1 43.9979 31.141 3.2707
1 35.43 7.67752 27.7737
1 0.53787 27.4177 9.08953
1 37.4047 46.723 30.6969
1 31.3169 5.38163 2.48982
1 12.9159 12.6943 13.1825
1 40.128 26.5122 41.0131
1 13.6611 31.4418 24.9406
1 43.8278 43.4861 38.7352
1 7.09839 19.1958 31.012
1 39.1186 43.0286 10.3355
1 11.4446 41.7866 15.0289
1 33.7171 22.0846 30.7963
1 6.56414 6.34524 9.31866
1 35.6045 44.325 40.414
1 48.2907 24.4855 12.6959
1 23.762 36.0077 38.6012
1 32.767 18.0349 49.3557
1 15.6913 46.3965 33.541
1 21.8104 42.6499 30.4194
1 29.1221 14.8405 17.9116
1 18.8214 42.3372 31.2482
1 5.48501 21.167 48.9669
1 9.35469 39.1404 25.9568
1 28.6579 20.839 20.7025
1 46.9235 7.24924 22.072
1 25.6236 18.3851 2.27138
1 32.9864 44.2138 35.0125
1 18.0254 21.6883 15.9092
1 21.5541 41.2724 7.63601
1 27.0145 10.1396 28.1985
1 33.9919 34.8882 39.6139
1 23.2234 43.5838 21.5494
1 10.1482 34.4943 1.66352
1 48.8794 11.3132 17.8544
1 33.7628 27.7425 20.2151
1 17.2902 14.3459 30.7351
1 15.4049 46.9237 17.8272
1 38.3455 24.3623 37.6543
1 3.82168 44.1189 33.8036
1 30.1585 16.4932 46.8508
1 39.4756 16.0286 0.458743
1 15.8032 5.51505 7.03064
1 46.5555 12.7414 5.43188
1 10.4091 49.3787 2.19419
1 6.8781 36.6214 41.283
1 29.8477 36.2277 11.4945
1 25.6423 25.7767 13.6789
1 20.7487 43.3769 18.7302
1 14.2768 27.6326 26.4535
1 18.8409 46.1106 22.6149
1 37.9242 34.5249 24.0852
1 3.45149 38.0432 4.00824
1 41.963 47.1924 42.9316
1 46.2385 17.4381 41.7315
1 14.2344 49.3835 47.5909
1 41.3409 38.8959 18.7504
1 15.4226 32.22 21.8243
1 4.69785 17.6515 10.6372
1 1.60046 37.2305 43.5328
1 27.8585 32.6195 17.9302
1 27.547 36.8458 12.6513
1 24.405 32.9787 36.134
1 11.2667 2.99951 30.4791
1 13.0157 18.2029 35.0434
1 38.7295 8.52204 11.9782
1 1.85967 9.77444 5.88985
1 21.6761 17.324 45.8292
1 6.39642 6.77402 43.9784
1 16.7638 35.2194 3.64624
1 8.54832 7.31916 28.7764
1 5.01773 13.7332 9.35023
1 32.4774 0.418495 23.9213
1 2.19964 10.6587 10.5521
1 19.7607 47.5719 30.547
1 39.4465 4.54564 9.08738
1 13.4909 38.9397 18.0846
1 42.4979 22.9518 26.5163
1 24.5648 2.79887 44.3662
1 22.7279 42.344 17.65
1 32.8223 39.8633 24.6316
1 8.98134 49.5203 11.431
1 20.8359 16.9118 18.7103
1 30.2465 26.7307 26.2436
1 23.6433 30.5591 32.2105
1 2.10434 48.6075 28.3767
1 25.6471 10.2671 3.13451
1 41.9694 34.6284 32.7749
1 27.2045 11.4471 47.0638
1 36.7245 44.315 13.736
1 40.3283 31.4366 25.6371
1 8.20727 5.50538 19.5716
1 5.10379 8.41012 30.8477
1 39.3312 45.8667 27.9882
1 22.3384 1.98157 45.2533
1 34.4907 7.9843 14.3072
1 1.91329 10.226 40.4173
1 42.5796 8.39254 23.8025
1 16.838 17.7594 46.0023
1 9.2883 1.40566 29.1635
1 48.9401 46.1424 11.0246
1 3.11767 13.2363 27.113
1 1.92535 12.8907 37.3815
1 12.9396 46.6664 27.9584
1 44.4462 37.3199 14.5906
1 39.4298 5.42594 6.3851
1 36.1133 15.8333 2.90542
1 17.2582 4.44792 47.815
1 37.7583 15.9559 30.791
1 39.9358 15.1317 17.6678
1 43.1452 4.02105 7.01132
1 44.665 43.0421 19.6936
1 34.5884 23.7064 14.3613
1 49.3618 26.3631 23.3616
1 35.0061 5.38038 5.43848
1 33.592 2.30655 42.4053
1 42.4968 4.14109 35.1871
1 45.2169 25.2782 45.6412
1 28.0905 18.5092 36.4816
1 24.1777 27.1314 11.8643
1 25.6971 14.4252 24.8669
1 13.6783 12.2701 44.6214
1 48.144 27.1653 42.2551
1 18.2458 34.3844 30.4876
1 9.70283 22.7529 19.8175
1 7.94495 34.2589 38.0706
1 14.7407 35.328 20.3435
1 3.38313 15.0513 46.1655
1 23.5002 36.0972 32.7513
1 24.3349 9.95061 0.773078
1 20.5442 10.639 32.3044
1 18.4571 32.902 47.4512
1 25.1084 49.5816 31.9972
1 48.9599 43.1114 19.0772
1 19.1103 6.66086 46.9038
1 8.64191 45.3031 3.50191
1 47.9573 33.94 30.7474
1 13.272 33.6191 37.1855
1 45.2083 20.0379 35.0987
1 5.81064 43.5775 11.0688
1 40.9712 44.9735 10.9868
1 10.0275 47.819 47.4445
1 38.7104 48.7515 49.1222
1 0.104165 26.6955 30.7606
1 33.3049 16.6216 29.4648
1 0.652191 12.4463 32.0105
1 13.6133 7.84873 24.7577
1 19.2391 12.6873 0.200878
1 3.59674 19.6471 0.92238
1 7.55084 25.571 20.0129
1 39.8204 3.96856 47.5941
1 13.7992 49.2936 16.8729
1 5.9902 10.3675 47.4028
1 36.9198 34.105 47.2716
1 31.0079 41.9486 15.2106
1 18.5414 24.141 10.0329
1 34.0207 41.2792 15.4141
1 11.1046 46.4526 19.7327
1 39.8192 29.2618 27.6031
1 7.76921 46.1573 37.9835
1 19.7393 44.3565 14.5771
1 12.9 49.3723 38.796
1 6.82815 24.2429 26.4674
1 25.3893 46.1925 15.0056
1 12.7499 47.0536 47.684
1 34.3274 36.1084 44.0099
1 33.214 45.9874 9.5475
1 8.71268 38.7885 0.916714
1 49.0695 13.3802 0.958036
1 4.39773 15.5011 37.8449
1 36.8872 47.358 6.77049
1 15.804 13.3395 15.0428
1 36.9885 38.744 34.3305
1 7.78017 29.1376 17.2867
1 33.7763 13.1978 4.32144
1 21.2747 36.744 12.1347
1 20.3478 1.82926 0.573312
1 19.5306 43.0546 3.27271
1 35.5887 13.9732 6.25974
1 21.763 43.7214 1.81083
1 26.8635 23.6345 5.67651
1 21.5905 4.81047 25.8028
1 26.0109 8.62769 30.1059
1 35.6126 11.9591 14.9849
1 49.3753 21.6899 4.65234
1 27.0718 39.933 1.51772
1 30.9567 7.96208 10.2512
1 16.9244 40.7527 41.6659
1 24.2453 24.5334 6.46205
1 47.192 16.9294 6.84318
1 24.8914 47.9217 29.6735
1 11.0919 19.58 23.2657
1 18.8145 21.4822 9.72381
1 18.53 39.0019 43.2343
1 4.63569 1.02321 18.5619
1 25.6535 13.9062 27.3546
1 37.0794 37.817 17.3909
1 32.3319 33.5901 44.0653
1 41.7386 32.9885 27.9093
1 31.226 13.7923 6.00846
1 17.9547 17.4274 14.7916
1 15.6013 40.6224 45.2746
1 45.4296 13.888 9.17099
1 46.5418 10.2612 4.6128
1 42.1083 40.3236 46.6489
1 42.4282 36.6149 40.8656
1 27.3549 44.0871 4.56163
1 22.3244 27.9195 47.5989
1 35.8554 39.226 19.2233
1 46.7919 29.6209 44.4838
1 47.9328 0.430259 16.3774
1 9.62818 16.4693 14.6762
1 25.6751 2.23556 9.48566
1 16.5927 45.1922 37.6129
1 22.6975 38.589 25.3058
1 3.44909 34.3542 19.1301
1 33.3148 27.9541 38.812
1 1.48616 17.0989 12.856
1 29.6795 46.8201 45.5638
1 15.6923 11.3557 35.7479
1 27.7378 28.1304 13.105
1 46.3555 31.3532 46.8959
1 41.9134 4.89006 31.467
1 37.4953 36.0715 34.0306
1 34.5399 10.4861 43.8557
1 46.7312 9.54896 32.9929
1 18.5586 20.2207 2.92228
1 11.6482 23.9195 3.37436
1 40.1449 45.8207 40.5765
1 18.5067 22.7279 33.929
1 25.1055 45.7628 24.4457
1 23.8479 8.18393 3.84314
1 14.3345 6.90872 0.428934
1 28.6558 33.3176 13.0079
1 48.696 26.9334 20.9791
1 31.7038 39.9462 11.2967
1 41.171 47.2394 8.04103
1 1.46511 30.0196 4.22792
1 41.6304 13.6998 8.13807
1 7.33484 41.4515 42.649
1 12.2107 20.7549 30.1487
1 18.0481 26.5004 20.1259
1 42.1847 8.04069 15.2857
1 18.914 39.5083 23.8387
1 0.939226 27.6336 26.67
1 30.1252 10.9382 1.32364
1 0.0704592 15.0588 12.9504
1 20.0283 25.8307 16.4338
1 20.4831 11.3106 34.8131
1 25.0325 4.23416 31.9981
1 49.2587 44.3195 46.2337
1 9.89664 21.5288 28.5256
1 9.8179 44.1912 26.4048
1 3.7406 1.6768 7.12119
1 9.75716 5.42045 13.8758
1 7.57627 25.2512 41.9064
1 10.6951 33.68 27.5429
1 41.6926 13.5757 40.5733
1 0.30785 18.1806 25.2889
1 43.4155 34.4657 20.424
1 35.2619 23.5663 24.0914
1 32.7225 27.7592 14.2844
1 31.7919 2.98901 31.353
1 1.63893 3.88213 2.13235
1 3.74285 19.148 23.5715
1 18.3323 6.58948 27.8993
1 43.6211 25.2874 8.45077
1 31.9477 16.9674 13.9763
1 42.6444 0.146352 18.9019
1 8.3635 42.9235 31.6396
1 48.5876 3.73886 9.39291
1 46.8307 38.1793 42.5768
1 2.67384 41.2321 37.1146
1 38.7606 13.2795 38.9656
1 43.6075 19.0284 13.9109
1 3.31817 14.2812 29.7729
1 31.1327 14.5058 23.1429
1 15.9134 7.37217 46.3554
1 36.6561 34.2382 30.1647
1 28.6648 2.52004 35.1193
1 44.8556 4.93863 17.0702
1 35.866 42.3918 7.69142
1 31.7334 34.7956 18.1521
1 41.9829 46.2304 1.95198
1 0.939613 47.6628 30.6197
1 49.6471 -0.105108 36.607
1 6.71385 4.28421 27.2988
1 7.76598 18.66 13.9236
1 41.6319 34.7308 46.5942
1 21.6386 41.7808 40.8762
1 33.8584 15.3893 44.4785
1 13.5098 1.51101 30.7544
1 39.6111 9.11914 39.9651
1 45.5642 2.96813 5.73791
1 36.693 36.5135 31.4763
1 20.1629 46.2227 8.28577
1 12.3418 3.49606 19.0266
1 25.9396 20.1055 16.5674
1 46.907 36.9521 49.3159
1 28.3997 25.514 45.6158
1 48.5858 31.7867 42.4812
1 24.4277 33.9314 15.9098
1 48.1706 20.9484 30.4167
1 48.3031 6.54469 2.14234
1 11.2708 11.3963 17.2589
1 18.5501 47.7285 2.24635
1 14.4753 26.6212 6.7124
1 4.51507 1.32151 12.6714
1 17.2836 13.5117 5.50697
1 17.2638 32.2603 0.208696
1 7.62143 3.52575 31.6314
1 16.3345 8.08516 49.1071
1 17.9925 2.09981 10.6865
1 38.9558 7.25987 24.8758
1 49.4476 35.814 18.1903
1 7.87438 7.98285 3.35057
1 0.426518 47.766 19.4692
1 39.1486 41.5749 35.8417
1 28.769 7.21564 5.46219
1 17.343 7.00467 43.9007
1 39.091 26.8863 47.3796
1 45.5405 34.956 24.2912
1 18.7752 32.4763 9.16853
1 25.4689 35.4168 47.69
1 21.9396 9.63561 10.2203
1 4.40652 25.9656 47.4728
1 22.8588 11.6791 36.1938
1 48.5384 36.168 38.811
1 0.469358 33.5346 38.3491
1 3.69592 4.65557 25.0339
1 27.3664 9.44882 14.2537
1 10.7841 47.7553 40.0108
1 2.57986 13.5773 48.2744
1 43.8512 18.061 38.6645
1 35.8438 3.83071 8.22431
1 36.1003 49.6839 3.53261
1 6.74942 7.62263 48.1669
1 5.52449 17.1153 16.8293
1 5.12547 12.6196 25.6098
1 28.3937 27.0187 38.1452
1 2.9031 1.7257 0.244486
1 14.5918 7.13722 31.8988
1 16.7362 29.7464 22.8528
1 29.3018 19.8448 3.11739
1 45.3216 26.0029 25.1624
1 36.2586 14.1437 36.9209
1 47.2528 31.3658 8.66547
1 14.6618 21.0821 24.7115
1 17.8528 23.0772 30.8643
1 28.2909 21.8621 1.506
1 12.1151 39.4216 48.0665
1 25.298 16.6164 34.6419
1 28.6673 14.5005 36.9671
1 28.6111 31.1788 3.24668
1 15.9212 25.1512 26.0831
1 14.1148 42.5825 25.8752
1 42.6377 25.0151 6.01804
1 6.3795 4.47707 37.6352
1 33.6807 29.9331 2.98065
1 12.6393 43.5674 41.0213
1 33.9043 5.99722 2.78487
1 21.6391 12.0515 27.9228
1 28.8248 35.4037 25.8822
1 18.4441 30.5502 35.4274
1 47.6134 43.2027 15.3858
1 48.0876 27.2818 47.4835
1 13.0639 1.76567 22.1606
1 37.4305 41.3046 49.3136
1 24.4572 15.2211 29.4
1 49.2275 16.0959 27.7617
1 22.1707 23.9477 25.3026
1 22.1116 1.779 48.023
1 41.1492 17.6595 22.9415
1 8.44619 25.3947 30.2264
1 10.4884 44.8263 10.3199
1 6.08953 17.5124 29.1185
1 30.4598 8.40428 35.4032
1 29.4317 42.5254 26.728
1 27.2497 34.387 32.8929
1 34.1104 34.5513 47.8503
1 43.926 41.5367 13.3852
1 14.5413 46.2069 4.55172
1 16.5196 21.5673 19.823
1 35.0585 2.97409 28.5174
1 35.4348 42.8698 17.1256
1 10.1719 26.4908 20.6019
1 47.6394 45.0086 30.8127
1 43.1605 13.282 11.1357
1 47.2497 13.1463 45.4225
1 12.5606 20.4972 8.71329
1 43.6673 34.6454 34.8046
1 42.4608 31.0903 23.1159
1 47.8982 23.116 32.6092
1 8.10967 14.8482 5.48494
1 42.9473 46.421 4.84515
1 11.5 28.4171 9.89237
1 6.1942 0.512327 20.3528
1 25.1176 39.0781 36.3088
1 5.32378 32.9836 28.7452
1 28.3382 22.2788 34.2296
1 1.41055 33.9456 25.4852
1 37.518 5.99878 11.0768
1 4.42122 29.8691 10.9317
1 22.6104 5.09847 43.9722
1 32.2074 19.3731 44.4271
1 43.4277 16.3535 18.3597
1 28.5775 29.2097 45.1684
1 3.94527 24.9076 35.3467
1 17.5414 9.31454 13.9212
1 14.3171 4.71999 35.0046
1 16.5997 44.6201 6.52376
1 21.3845 33.7177 28.668
1 27.6486 25.3459 19.2391
1 44.5097 3.73195 9.71213
1 21.8699 46.5123 10.508
1 44.1233 39.2755 33.8955
1 21.8008 48.7188 22.959
1 23.4653 35.6295 35.8787
1 8.06674 33.1187 6.83097
1 32.2771 29.5485 42.6969
1 14.1127 15.7994 33.8966
1 2.31974 24.3998 5.06607
1 39.1474 5.20755 28.6939
1 36.6685 45.7729 36.2859
1 5.89947 41.4816 23.8239
1 13.1246 14.6241 31.7512
1 32.4471 25.2695 45.6696
1 37.6011 36.0528 5.5574
1 45.2611 8.21648 24.4579
1 17.3384 11.3806 1.50954
1 0.472757 0.308405 40.753
1 36.5011 42.592 46.6487
1 42.8501 38.3529 16.6308
1 44.4838 41.7505 42.4313
1 4.32785 29.6768 24.4782
1 33.5051 24.1018 38.7742
1 11.5859 42.3436 19.5358
1 8.04753 18.8942 43.0759
1 1.60586 20.4519 25.3562
1 20.6311 10.7634 5.50271
1 29.7008 44.161 49.5494
1 9.87456 26.1072 14.1225
1 19.1309 35.475 34.6205
1 6.5141 41.4244 35.2258
1 0.300655 41.6686 29.4656
1 42.1052 16.2106 11.3272
1 24.1489 25.7741 31.5679
1 48.4378 38.8671 7.90718
1 28.8584 3.43453 9.70632
1 21.0672 34.2266 36.2978
1 36.2331 45.0723 25.1002
1 1.80831 33.8255 47.0957
1 1.2506 35.5612 1.26365
1 46.8502 1.62673 13.6134
1 21.0846 33.9846 14.5644
1 12.8654 40.364 27.5107
1 17.5379 8.17723 4.62724
1 21.1609 43.1271 35.6148
1 16.3831 11.0751 7.18665
1 7.64494 37.8453 27.5343
1 35.2576 13.9672 22.6224
1 45.5678 5.96401 5.57176
1 25.2061 35.016 25.7807
1 6.61937 45.381 22.5598
1 11.0949 8.59573 13.8659
1 49.4539 6.35364 44.8453
1 45.6589 18.4145 46.4577
1 25.1064 27.5475 20.2916
1 42.3381 24.4944 37.0837
1 11.9729 24.6497 43.3712
1 5.63187 47.2395 26.2398
1 29.0083 30.1282 20.87
1 31.1189 45.0655 42.8419
1 33.6553 11.0001 28.0332
1 29.9801 34.6723 33.7208
1 46.9216 0.725183 32.0228
1 41.912 2.47299 36.9774
1 24.8322 41.1638 48.0885
1 20.4676 26.3947 21.7473
1 5.85685 10.0025 33.4
1 21.2336 28.6215 5.19163
1 36.217 35.2788 16.6253
1 40.2384 44.2074 35.8203
1 46.1345 41.1028 31.6115
1 28.7738 9.41572 22.1786
1 48.5706 47.8742 39.8007
1 47.0579 36.2416 26.6686
1 43.6264 4.33461 40.0947
1 9.00388 49.2702 23.1138
1 35.7027 40.5586 4.89609
1 8.61948 2.0591 16.1567
1 30.1001 34.2155 21.7476
1 43.2508 37.9281 20.7309
1 37.1683 11.1877 36.5041
1 8.0758 16.372 46.0491
1 15.0159 2.02539 26.261
1 39.8197 24.311 45.7812
1 11.609 8.80459 34.2213
1 47.9291 34.6073 45.872
1 3.3425 35.3754 10.9784
1 23.2759 44.2066 11.2155
1 7.93844 49.2862 32.2707
1 39.7508 0.3304 20.4482
1 10.7435 15.4191 46.6987
1 48.0417 25.7543 5.60293
1 14.0218 7.13544 3.52945
1 40.2919 39.8251 37.5655
1 16.5395 4.7478 26.3904
1 31.2725 10.9261 13.8501
1 46.4261 46.0125 22.4792
1 25.8096 28.267 22.8314
1 3.45522 32.0821 49.0703
1 5.57452 21.7819 2.49824
1 14.7576 44.8018 41.5803
1 14.7588 8.60063 12.677
1 23.4936 16.182 11.6054
1 36.2147 4.36489 25.5823
1 31.0932 7.66606 7.49708
1 12.2599 1.43476 26.9168
1 15.5213 25.5005 16.0894
1 46.9934 9.29442 37.9225
1 29.1383 37.3234 31.7413
1 16.513 42.5348 8.18068
1 16.2641 27.0765 0.277686
1 6.16862 49.6702 10.6754
1 39.0564 8.21363 48.3379
1 35.9416 2.79473 4.19989
1 47.3832 29.8082 49.5741
1 3.76613 16.2447 14.5065
1 47.7932 36.2131 16.0731
1 9.74357 22.6724 2.20152
1 28.828 41.6169 23.1463
1 5.82736 40.7756 40.6717
1 6.96745 3.56954 34.5191
1 24.5378 18.8241 28.4978
1 22.2592 6.98255 34.6245
1 12.662 21.29 22.0598
1 1.81892 21.7244 43.3654
1 12.0353 18.9487 4.29616
1 42.9961 10.2605 39.7834
1 42.1482 22.6473 31.9743
1 22.1488 44.5716 39.6542
1 36.1758 17.3034 18.1127
1 0.467329 1.64973 10.0835
1 13.3939 32.5239 31.869
1 7.90717 13.3595 10.5154
1 38.1961 32.0002 15.2746
1 44.8788 16.1487 14.0995
1 31.2397 18.964 46.8594
1 4.37237 33.828 8.98189
1 13.369 35.4726 48.8443
1 -0.000668997 12.0073 22.5375
1 21.349 33.6941 20.054
1 15.6869 16.4294 18.4007
1 7.00448 3.07396 11.1469
1 42.2251 32.8298 30.9688
1 6.89195 28.6583 38.7686
1 31.3551 41.603 31.6603
1 4.95853 9.42237 11.1285
1 48.7135 9.2508 3.09551
1 12.6125 32.0982 43.9074
1 3.49734 31.5124 8.05924
1 17.2595 48.0693 15.4639
1 7.30375 6.22744 39.767
1 7.65265 45.7996 25.1971
1 13.9688 31.7943 11.0769
1 11.1623 42.0088 1.79965
1 46.5198 19.9466 10.1259
1 28.2386 39.0222 48.4959
1 6.53762 2.67796 44.1141
1 11.7052 4.715 44.3643
1 48.4201 46.1267 35.9768
1 35.1998 22.0402 10.6515
1 49.4797 27.6821 34.4388
1 -0.103101 27.0942 11.8112
1 13.1595 6.65856 14.3169
1 48.9544 40.4134 31.5392
1 24.0133 21.2049 19.8276
1 14.8677 18.3352 40.0441
1 15.6712 12.8208 3.32553
1 34.0346 37.2545 30.9434
1 8.05757 44.3976 48.0485
1 31.9336 20.8125 14.6871
1 2.01995 34.8064 29.6783
1 1.7281 32.3949 36.327
1 13.9571 27.9665 44.3325
1 21.3304 9.80992 2.99092
1 7.59927 12.6738 27.1339
1 38.473 20.538 32.9005
1 18.2509 1.10844 23.8222
1 11.6889 4.24227 27.8409
1 48.9696 49.8188 6.42403
1 15.0575 26.9597 37.191
1 2.95673 15.2549 34.0519
1 42.5352 18.3594 20.1901
1 10.0759 9.30977 11.2498
1 35.4391 16.6112 7.413
1 16.6939 46.6731 0.806106
1 3.48415 33.2046 12.6015
1 28.3108 5.40735 43.1903
1 26.41 13.3357 45.1302
1 33.1051 3.41532 19.5389
1 6.56981 38.2319 37.1833
1 10.564 7.69406 31.6211
1 40.1706 44.9101 33.2181
1 33.2118 6.841 22.4308
1 33.4844 0.500935 26.9016
1 15.8583 23.3082 28.5383
1 12.839 17.1752 20.79
1 41.1723 13.5984 2.47322
1 3.90811 25.8864 30.7171
1 33.2119 28.0844 45.0766
1 33.9881 38.4954 16.5825
1 7.73246 36.4327 11.1786
1 34.8156 46.0251 19.1291
1 43.4083 1.54402 34.1016
1 23.5789 13.6203 43.4945
1 19.0216 21.8229 47.1184
1 14.5248 2.61254 36.6163
1 25.4959 14.5842 0.720848
1 19.3926 4.83961 4.97423
1 48.0783 30.2835 20.1743
1 12.1327 27.435 33.1393
1 0.447625 39.9064 26.487
1 27.9557 33.4147 40.3012
1 15.8969 4.18497 17.675
1 21.8547 12.2869 1.73409
1 26.3562 41.0497 4.27866
1 5.61615 47.2946 11.9356
1 48.5325 23.3696 7.19225
1 5.21869 18.9828 14.3523
1 29.1379 42.9681 9.06557
1 40.1451 11.4862 29.1972
1 12.6458 27.232 12.0786
1 28.5123 30.794 0.549922
1 10.387 45.7766 16.9368
1 32.0535 28.8125 34.8912
1 28.9177 2.92816 26.131
1 33.1684 43.1398 37.7978
1 27.6977 12.4419 41.4554
1 23.0525 29.071 20.6002
1 13.6629 23.9112 33.7809
1 10.2994 40.7721 46.4427
1 41.5859 30.7992 35.3268
1 41.4404 43.9271 27.9557
1 8.15737 26.3839 3.89983
1 5.12834 3.41577 14.5209
1 3.59987 46.0754 24.7769
1 43.6419 13.8983 4.1356
1 47.4825 40.7902 4.22691
1 11.2624 21.9769 44.2077
1 5.80426 24.2043 6.77304
1 28.5394 46.8673 40.8508
1 10.246 24.1582 47.4474
1 7.00909 46.4656 15.2913
1 42.4789 43.8046 13.2145
1 19.968 20.4129 7.06356
1 48.3755 20.7362 8.33477
1 26.8944 31.0025 43.6102
1 17.6896 17.7951 1.91343
1 17.5432 26.8081 6.28306
1 9.09033 3.91194 0.786849
1 1.11644 44.9974 34.4657
1 27.6075 11.1428 6.83946
1 12.6643 48.6766 20.7338
1 32.6404 0.87522 29.6078
1 26.6988 20.9305 36.2547
1 39.4792 32.0863 7.59607
1 37.0989 6.85995 15.5518
1 31.7786 9.95691 6.12693
1 6.49505 14.578 35.8375
1 5.1973 45.7751 30.2858
1 5.92299 28.9327 41.1569
1 8.14462 24.1093 5.48366
1 12.8124 25.1455 47.4928
1 43.8677 15.956 29.5612
1 44.0219 16.4136 40.952
1 24.1862 30.4032 26.8576
1 3.38598 15.3228 11.3079
1 2.59669 17.9312 21.3865
1 31.1413 32.2959 33.2102
1 7.94484 0.592668 37.8676
1 39.2916 30.9804 40.0369
1 39.6986 11.2855 35.5426
1 24.5177 42.0833 44.5423
1 17.4787 8.02668 31.7077
1 49.5725 3.77589 33.0403
1 27.5485 31.6338 32.248
1 6.00402 7.07225 1.35805
1 34.4027 30.228 5.76409
1 29.2392 26.926 43.5842
1 39.4208 11.5371 1.77732
1 20.5065 41.5239 13.8107
1 38.8401 17.3616 27.4616
1 33.9046 19.0381 2.56755
1 27.4627 43.9466 33.1921
1 38.5435 25.4364 28.5963
1 49.2743 17.109 9.16989
1 12.2531 43.2348 6.27302
1 1.94343 38.2211 22.6286
1 25.1978 43.8481 27.8863
1 28.5897 3.12496 5.00227
1 20.8551 40.985 22.5967
1 28.8969 1.55679 2.08239
1 35.8631 40.2636 42.9623
1 3.5211 26.0769 11.8273
1 22.1644 39.1972 33.0296
1 11.6696 26.596 4.08201
1 14.5453 4.75952 20.1477
1 25.4542 2.12817 30.6417
1 30.3078 12.0054 7.89555
1 30.4193 29.4157 14.0988
1 1.58662 24.2276 7.75347
1 32.985 41.1233 48.7359
1 44.4808 38.3819 31.1176
1 29.1107 13.3504 43.7299
1 11.937 5.12387 39.0553
1 31.6354 38.0841 20.7407
1 2.56667 2.0479 41.6272
1 11.1386 40.436 43.8505
1 15.4456 48.4776 20.2656
1 0.251523 37.0617 6.13883
1 5.92696 35.0571 -0.0773944
1 4.56442 43.0258 36.2307
1 16.7095 44.4378 13.9559
1 20.8995 14.9868 47.2181
1 33.2998 8.61563 2.64715
1 30.2466 30.8324 47.835
1 19.8323 17.0213 4.71506
1 30.7902 28.1198 11.4126
1 22.8457 7.13881 45.9294
1 8.34074 29.4368 22.7694
1 37.3537 37.1008 10.8374
1 40.7189 36.0574 14.7611
1 34.7262 25.9385 49.3625
1 9.67415 44.1553 22.9915
1 44.499 20.8143 44.8014
1 40.9027 40.8266 6.71564
1 8.90821 30.8256 19.8634
1 27.6397 49.2786 38.5827
1 33.9803 48.2255 15.8267
1 39.2703 41.872 15.9648
1 5.22278 20.9403 35.8209
1 8.52878 43.8042 42.1687
1 21.8104 25.4184 19.5973
1 19.6857 3.62527 8.6569
1 14.7266 4.94365 40.5311
1 46.9942 43.8115 10.767
1 46.2153 8.12029 15.1759
1 17.0357 14.6048 9.66525
1 0.326486 12.5144 7.20439
1 47.4607 23.5997 40.5141
1 48.6345 8.56828 43.5716
1 28.5874 30.0366 10.7857
1 27.6515 39.8202 20.7491
1 28.9572 24.8655 6.51889
1 9.57313 -0.0228207 17.8451
1 40.8727 8.30634 4.18395
1 35.3972 17.3168 48.596
1 24.3659 33.0852 44.8685
1 36.946 42.1295 12.1576
1 42.842 26.1691 2.67812
1 35.0259 21.2521 33.1342
1 45.0531 40.3385 10.6216
1 15.7708 16.9711 3.15172
1 2.77054 44.8649 14.6649
1 13.8865 45.9377 44.125
1 7.78309 35.1977 33.6962
1 46.1332 41.9295 34.7477
1 22.7871 32.8933 7.40207
1 24.5668 8.47377 24.192
1 29.6006 7.19013 31.975
1 40.8599 0.478588 42.8909
1 13.8318 32.0673 41.3748
1 48.2936 48.3812 44.511
1 48.6349 45.839 26.4687
1 34.7574 18.2662 44.075
1 13.6388 15.1144 37.7234
1 39.0484 21.0196 14.9787
1 10.3879 45.3443 13.2501
1 15.1511 30.1045 4.39052
1 43.796 41.2212 16.1945
1 8.90442 10.4268 47.8579
1 44.0159 41.9898 1.70709
1 1.63528 46.4678 16.975
1 25.4036 11.7189 5.42354
1 4.86672 49.0183 22.4761
1 34.7098 36.594 14.868
1 1.2243 23.4944 27.687
1 28.6768 6.25612 36.0812
1 39.7761 34.7666 18.3046
1 32.9091 47.5151 27.3404
1 33.8092 14.5001 37.9
1 30.1284 24.219 2.05842
1 48.8205 16.4169 49.0054
1 30.7435 12.4149 15.9438
1 48.5744 35.0918 10.9616
1 13.4185 33.6245 5.91547
1 39.0045 48.2919 33.2779
1 28.3696 29.8461 8.12818
1 2.44262 6.28361 43.1316
1 10.3945 41.8504 7.62197
1 7.4995 45.4555 43.8607
1 44.8925 14.2647 39.5406
1 5.21804 7.79495 21.9844
1 24.8311 49.6064 1.87959
1 22.6827 49.5645 6.32843
1 17.4877 24.6477 23.7199
1 26.7775 6.44075 41.4594
1 45.4957 48.5746 41.1043
1 12.2275 11.6913 36.5314
1 26.0291 12.1137 21.022
1 33.5696 31.8415 10.7144
1 46.7884 20.2213 1.07177
1 33.0814 23.9534 5.36357
1 13.8952 4.06578 1.17323
1 2.59812 28.882 22.4449
1 11.237 27.716 1.63755
1 0.4143 28.1188 2.27094
1 46.3669 27.9185 32.921
1 22.0394 22.2282 41.6911
1 33.1654 23.7291 10.7382
1 43.8091 44.7913 28.6517
1 2.49153 41.7993 16.9832
1 18.6987 3.19334 26.2556
1 48.6345 34.4543 0.640962
1 43.7639 38.1517 7.23063
1 2.33898 41.0616 28.0597
1 20.2991 23.7547 29.9563
1 38.6405 16.3991 12.7184
1 35.2925 45.4722 10.6897
1 37.2081 26.8065 38.2703
1 4.4812 26.9274 44.6211
1 32.9674 16.3318 8.92011
1 13.5211 29.0428 14.154
1 34.4888 39.1821 33.2393
1 1.3952 6.47578 20.8186
1 33.4079 3.1513 1.29065
1 46.8476 47.7721 7.48065
1 36.0115 14.8345 12.5805
1 45.7658 34.7589 17.4006
1 45.0813 28.1696 49.0564
1 24.3331 7.88264 37.1053
1 8.77939 29.1826 10.3277
1 33.2105 45.4393 6.79548
1 39.2238 1.53149 8.85947
1 23.0767 20.4177 45.9114
1 19.2244 37.2038 19.5271
1 4.7498 37.9316 41.456
1 20.4279 46.213 20.3386
1 39.9656 6.81686 35.1924
1 19.6645 43.0237 25.9289
1 22.1277 26.9373 3.35866
1 42.7864 32.7245 36.5153
1 28.7167 6.41568 23.9764
1 25.4768 5.11615 9.39559
1 0.578946 37.0476 35.5433
1 9.36271 31.5585 23.8836
1 12.1793 23.9303 21.1825
1 42.7683 0.0509796 9.17582
1 47.6715 38.9306 26.811
1 38.8839 2.026 40.1494
1 41.9661 47.0591 24.7661
1 28.1901 27.774 0.678151
1 17.6377 18.8786 33.037
1 17.4962 33.1429 38.916
1 33.1107 34.9292 29.5302
1 5.41136 3.19229 41.4224
1 8.0215 14.4996 2.80485
1 1.5531 11.1723 34.5898
1 30.0994 48.5891 0.805526
1 40.7822 26.6682 0.899843
1 12.1458 31.5718 17.3242
1 14.2433 40.4732 15.9337
1 4.71274 0.199421 28.7743
1 4.78458 47.0303 8.0496
1 11.177 11.4692 2.31655
1 7.15201 11.8294 6.17203
1 46.1042 25.923 20.9356
1 17.0185 6.00514 24.1484
1 5.41729 22.0125 29.902
1 4.2832 12.4672 33.4297
1 26.035 44.5959 0.968696
1 48.2969 49.2378 0.356481
1 23.0056 37.5561 46.552
1 31.3012 44.923 18.921
1 5.89395 29.0725 21.6165
1 7.06897 49.6054 41.7997
1 21.1448 17.2934 6.98955
1 12.297 44.1756 24.743
1 31.694 10.7068 10.1402
1 6.82475 16.502 25.1608
1 43.4633 9.94224 7.87395
1 20.4498 33.8708 2.89509
1 34.8551 41.2759 45.4237
1 3.72657 17.8942 27.954
1 4.6209 39.6181 25.5943
1 14.2203 12.5042 37.9652
1 17.9868 40.4706 0.47588
1 44.5876 34.7963 41.4241
1 17.8167 40.4874 39.0351
1 18.8289 3.80744 36.2178
1 26.3122 46.6444 39.1103
1 15.5872 22.5011 21.9325
1 24.876 41.2907 41.6371
1 12.5088 31.6246 27.404
1 15.9586 1.09523 13.1601
1 46.99 22.1718 23.9074
1 11.6998 13.7945 40.8513
1 21.8209 31.1755 1.09847
1 31.7121 32.7744 24.7061
1 42.53 18.3343 9.31525
1 9.35759 12.3832 30.6867
1 3.93636 14.2921 19.6433
1 4.46647 48.9821 49.5821
1 11.037 20.3598 16.6458
1 19.2205 2.08936 4.80869
1 38.1109 2.28665 20.1515
1 5.2886 31.9627 32.4034
1 17.9365 15.7495 44.5836
1 30.402 2.08919 7.55225
1 39.0024 39.4223 39.9064
1 22.9193 19.3801 7.92231
1 47.3418 18.3575 26.7568
1 22.3778 47.6183 29.0489
1 3.50841 25.1902 40.229
1 26.2356 33.1212 47.065
1 28.5974 26.348 3.70151
1 29.7219 1.407 22.2613
1 38.1091 38.6485 30.7103
1 43.4043 36.9016 1.20405
1 15.6764 34.7603 26.3762
1 11.2082 1.62442 11.1893
1 2.29113 15.5101 3.40134
1 31.7783 36.9967 32.9233
1 48.5972 3.74879 1.30596
1 31.1044 16.6778 40.7338
1 12.5723 23.1062 25.9607
1 15.3292 8.88549 16.0621
1 12.0289 13.0692 26.8191
1 10.5442 28.9955 31.1235
1 10.4054 13.1703 9.24185
1 0.930302 45.0395 39.2251
1 47.3074 28.5046 12.1051
1 31.1625 7.76182 21.0071
1 33.7607 1.66649 38.3475
1 39.4367 36.9242 19.8804
1 32.253 12.3542 38.0214
1 34.716 32.1761 20.2681
1 12.3042 42.9893 35.5383
1 20.0457 25.2024 42.2592
1 49.1684 24.8466 36.002
1 42.8711 33.8524 24.9718
1 36.8034 39.8399 7.91355
1 16.2495 2.41257 21.4033
1 31.1228 33.2444 37.1033
1 37.923 21.0364 3.89466
1 20.1655 13.3488 5.60581
1 28.6315 35.0769 15.29
1 42.5525 27.6115 21.8794
1 39.7232 43.6045 38.4829
1 17.108 37.259 22.4856
1 0.125884 14.2428 23.58
1 26.208 22.0675 23.4128
1 22.018 21.5832 9.88466
1 27.9577 45.4335 21.2444
1 16.3841 26.6681 34.571
1 22.419 25.4334 48.8846
1 40.3815 37.9881 29.55
1 25.3879 15.7042 18.419
1 43.9524 21.1556 22.9628
1 40.5506 3.33838 16.7216
1 25.1743 41.515 29.5474
1 31.1698 11.9997 40.7404
1 31.8238 1.62774 17.3434
1 3.29742 12.5285 12.6669
1 13.7971 4.94448 11.2079
1 11.4653 0.785907 47.7052
1 31.9133 22.3579 18.1983
1 47.2039 35.8346 41.4289
1 20.4762 31.4598 47.2734
1 42.2993 17.3381 42.8631
1 43.1235 48.8452 22.7989
1 31.8931 22.4705 21.206
1 28.028 24.997 9.34725
1 19.1443 13.4188 45.6325
1 20.2242 15.7649 41.4167
1 36.1576 20.7296 1.99311
1 41.7726 24.9169 21.8653
1 10.8203 35.8949 43.0672
1 14.1098 3.68803 8.79602
1 17.2812 24.9926 13.7236
1 45.2119 27.9739 46.2779
1 18.953 6.79386 0.550828
1 32.0289 5.59724 37.0636
1 5.66701 12.1697 20.7322
1 12.5428 35.5734 1.76142
1 39.5069 39.0979 11.3046
1 7.92116 7.65789 21.1999
1 0.748888 19.3037 15.4134
1 9.4913 6.8051 7.31933
1 19.0251 20.1004 43.364
1 32.1972 16.5059 36.5557
1 5.86966 46.0226 3.20382
1 28.679 32.4905 20.3844
1 41.2386 26.2219 29.277
1 2.87389 4.89883 0.176843
1 1.21095 4.32116 41.5958
1 48.7869 20.9978 22.3955
1 42.2331 19.9761 11.6279
1 22.2035 17.4794 40.5138
1 24.9154 37.6125 43.3912
1 46.2346 27.7312 9.51777
1 44.6373 49.2474 12.7628
1 23.4364 21.2532 32.8204
1 40.2032 14.7991 46.312
1 11.6159 10.7349 9.62852
1 6.70644 30.2434 45.1737
1 26.144 15.318 8.36663
1 45.2885 0.993243 9.84062
1 33.7617 49.4611 18.1621
1 2.54639 29.86 26.8875
1 18.8649 9.18035 2.39675
1 15.6512 39.0856 49.752
1 25.0197 34.4112 42.5997
1 27.4491 33.8141 42.5813
1 9.61347 38.0995 19.9685
1 27.6797 48.1055 20.8736
1 7.57276 34.0588 12.3494
1 10.5963 13.5639 14.3517
1 19.8852 29.8626 27.6888
1 36.4071 8.92354 24.5239
1 45.6539 22.5831 38.7072
1 15.3163 3.68176 30.8017
1 26.0763 17.668 22.1454
1 26.686 10.5809 38.1083
1 39.6853 29.6796 0.99648
1 4.05299 32.4563 17.1402
1 31.782 14.2026 42.5254
1 1.28286 43.8466 24.2686
1 32.4214 31.3362 35.1767
1 43.7721 7.22287 13.383
1 13.9181 17.5241 0.213574
1 13.9729 45.1909 14.0752
1 46.4953 30.4971 4.6727
1 45.4525 9.1715 17.7231
1 2.08209 40.5459 24.1933
1 23.519 37.1461 22.7558
1 24.7733 10.4091 40.4478
1 15.5844 4.01792 13.0688
1 44.9249 35.1952 48.9919
1 34.8896 25.6935 42.8404
1 10.5177 48.4295 13.5454
1 18.1705 1.31136 37.2778
1 12.5102 16.312 40.2446
1 42.3577 22.048 6.08423
1 42.9923 3.02474 23.5966
1 43.9156 9.56777 47.5437
1 22.3933 3.9326 30.9086
1 45.7549 16.9403 34.7819
1 18.0353 28.2142 16.5748
1 10.9898 46.9145 34.8544
1 28.3202 41.8727 29.3487
1 14.5286 35.0162 28.6021
1 37.092 47.2246 18.6231
1 29.0463 11.5107 25.446
1 19.6337 41.4086 20.0218
1 1.56781 47.3534 25.9504
1 14.9517 28.3924 21.5693
1 39.7278 15.6173 37.5588
1 1.7531 43.6564 30.809
1 5.69041 32.6765 38.1314
1 8.7282 4.41903 29.2149
1 31.7569 11.8317 23.9338
1 44.2936 10.7171 2.97289
1 5.91756 49.5262 8.01698
1 14.5829 33.1152 45.4909
1 5.01113 10.5324 44.9789
1 24.3866 7.05788 16.3941
1 1.63589 45.5341 5.5267
1 21.3858 0.487486 31.338
1 48.2271 30.4909 31.2029
1 44.0011 48.3706 1.03711
1 47.8496 36.9724 2.45945
1 21.8568 11.2508 25.2911
1 36.4159 34.9713 12.6281
1 34.6538 24.673 47.0841
1 42.2417 25.3601 48.0577
1 39.1788 42.3567 1.53054
1 9.51397 6.71895 17.7795
1 3.15798 44.0809 11.2699
1 44.6551 35.0514 3.10763
1 21.5598 32.5515 40.2176
1 45.8138 15.2521 19.3321
1 4.89095 43.4749 1.96534
1 22.7081 5.4529 23.2789
1 30.8109 41.321 40.9066
1 18.9641 30.7668 16.1454
1 9.28267 39.7145 42.2644
1 39.1461 17.1797 16.0724
1 35.9048 20.6173 17.8303
1 8.38475 34.7137 17.8577
1 40.5417 44.7247 44.1152
1 25.1392 12.6967 41.6006
1 38.6987 34.6295 15.952
1 29.9616 44.0708 40.7067
1 29.857 36.7439 22.1495
1 32.4125 13.379 31.5191
1 36.534 1.26518 9.31049
1 26.2844 20.8527 39.791