4096
 Atoms. Timestep: 1600
1 41.1511 19.1961 38.2114
1 12.4534 12.5516 1.75663
1 23.207 10.5477 16.8597
1 34.3057 3.22646 45.5073
1 21.0804 11.3037 25.0761
1 39.1571 18.4506 24.6742
1 21.4353 3.44128 31.6432
1 46.4328 18.4096 44.1159
1 3.30582 8.53092 30.3523
1 22.5194 4.66715 17.7698
1 15.1753 7.60176 1.01135
1 29.4162 29.2163 10.0118
1 40.6154 21.8991 34.7371
1 21.0616 32.2743 16.7707
1 35.499 31.8511 3.36928
1 35.0253 11.8302 11.6775
1 48.3449 1.17757 49.0871
1 45.2843 1.9555 21.9727
1 11.3565 23.9437 34.3975
1 6.51902 31.4173 13.212
1 44.3678 12.493 18.1463
1 28.7673 36.889 18.0864
1 18.4767 4.92589 49.6316
1 29.5934 11.3348 7.17795
1 45.9493 3.85629 10.5419
1 11.2461 11.1943 3.85257
1 7.2604 17.7229 11.8324
1 1.54479 10.3414 20.3705
1 12.5926 6.39131 42.7307
1 14.6008 39.9602 46.985
1 39.807 43.2877 4.76413
1 34.748 10.0989 49.2257
1 38.613 14.4263 29.1305
1 8.39673 0.688543 17.5392
1 4.93834 43.9084 48.2002
1 38.5608 45.5707 47.827
1 0.015693 39.156 45.8791
1 21.6459 11.6845 43.5378
1 12.4305 19.5402 39.6765
1 4.09152 24.7022 9.63826
1 25.9566 37.2418 44.4115
1 38.4062 27.7198 30.7641
1 24.5731 7.39642 18.0457
1 17.3086 34.584 4.23436
1 16.479 25.4822 6.70627
1 5.37872 47.4038 26.092
1 21.2543 20.9766 45.5086
1 43.6632 4.29061 4.36049
1 25.3683 4.17425 12.3686
1 48.7946 13.0269 48.9041
1 2.44652 21.8538 16.5337
1 4.34643 11.2115 42.9827
1 9.41001 17.5688 35.9785
1 6.14651 49.0512 35.606
1 30.3775 38.8735 48.3886
1 23.4499 10.3586 9.48359
1 15.5459 6.21072 27.1903
1 18.9011 4.34521 4.14811
1 25.917 11.1564 38.9086
1 9.57939 5.68931 23.8098
1 30.4397 12.7313 14.8446
1 6.32477 11.6675 21.961
1 8.67646 11.8805 13.9975
1 23.0479 4.6428 2.09935
1 20.0188 35.7402 0.426602
1 0.554458 15.505 41.9966
1 39.56 43.7723 14.7897
1 0.325838 8.69812 11.9636
1 16.4894 42.5486 10.3042
1 47.6522 49.3946 13.1621
1 48.2684 37.21 3.21619
1 28.2063 7.69928 44.2349
1 12.5435 35.528 26.9335
1 46.5073 22.1765 49.6229
1 46.6882 21.3579 47.1497
1 9.12446 14.5554 13.6329
1 20.2103 30.3416 35.7946
1 47.8715 34.6539 34.5093
1 20.2019 28.6535 40.4495
1 11.9987 44.4827 19.107
1 39.5414 5.85546 29.3289
1 32.2203 37.5954 0.705038
1 4.68204 37.3207 26.7997
1 20.5385 12.8904 8.11472
1 15.7515 48.3494 49.228
1 22.1314 33.2985 38.8337
1 25.5449 3.39153 47.4464
1 29.7985 19.392 16.338
1 15.9434 8.10584 4.86194
1 27.7653 17.1589 18.8742
1 42.66 1.36262 7.29246
1 1.7527 22.3727 19.4395
1 22.6275 40.1536 14.0273
1 42.2489 7.04714 11.3507
1 33.662 15.0084 40.7227
1 9.33555 42.9502 7.10164
1 29.4592 29.1215 26.4678
1 17.1104 48.3756 36.4791
1 40.2595 17.5464 7.2663
1 0.924454 9.75421 5.24331
1 43.8447 1.15626 45.2181
1 34.8498 35.6486 46.2465
1 5.88055 15.5489 40.0371
1 19.4729 21.3209 18.3118
1 7.83031 30.9376 9.15539
1 40.2541 16.1794 42.6329
1 37.6229 11.4642 8.35891
1 18.8052 25.5885 24.9915
1 32.3903 24.7834 45.1369
1 28.1695 46.952 3.93573
1 19.9514 43.7155 24.7769
1 7.43277 43.2773 34.322
1 47.9337 34.1084 4.25571
1 48.7322 19.1128 23.4964
1 20.2696 48.411 29.9869
1 31.4036 9.42853 4.84064
1 18.1897 18.6418 7.55504
1 9.81749 21.6576 44.6697
1 34.8043 40.2215 9.74618
1 43.3254 49.4332 28.5832
1 9.32839 36.5587 18.4225
1 11.1602 10.6147 26.3346
1 28.3401 38.6362 14.1186
1 12.4896 22.9601 49.2706
1 -0.0969687 44.5831 29.0991
1 43.9211 16.3323 10.3911
1 11.3689 46.3073 49.4765
1 5.19493 42.9859 6.99076
1 23.8273 24.3622 13.1722
1 33.8466 33.6574 32.675
1 44.935 9.17892 33.9381
1 19.7979 9.05968 49.1804
1 0.9552 35.2606 40.8061
1 6.37726 43.8882 28.1451
1 7.03441 38.7161 14.1952
1 39.3398 4.24685 5.33804
1 5.81431 49.3374 3.71489
1 26.9456 30.8833 4.12427
1 35.7321 43.5771 28.2811
1 29.0551 38.8838 39.4629
1 15.6332 25.9445 28.2152
1 25.0395 1.53688 19.3165
1 13.2466 31.4896 13.9745
1 5.57052 6.34155 44.2582
1 28.6441 22.0881 46.9047
1 45.742 33.6693 18.9821
1 41.5225 12.6581 47.8634
1 28.6034 18.3737 10.9758
1 0.121417 34.6758 17.612
1 39.3929 18.9182 11.8024
1 4.53133 16.9987 15.1247
1 41.1381 46.3077 48.7676
1 13.2521 25.8171 19.0472
1 31.7167 46.9232 12.2833
1 6.44325 16.9296 42.431
1 20.4533 39.5077 39.5198
1 1.13075 31.202 35.2892
1 34.1992 42.8092 37.3499
1 10.6731 38.2208 22.029
1 21.7869 21.4515 21.9097
1 12.1535 9.32566 41.9325
1 7.36565 49.7067 19.8288
1 23.4804 39.5865 17.5808
1 9.07804 12.1555 47.8787
1 2.97853 19.1968 48.4287
1 39.7179 4.70115 7.97944
1 30.0816 24.7767 30.3273
1 28.9279 1.07971 17.1431
1 14.2458 48.0725 43.7411
1 6.52934 35.3318 19.3839
1 47.9292 1.04564 39.3119
1 24.2222 46.244 12.586
1 11.3628 19.1107 7.20693
1 41.0201 23.3536 10.1492
1 14.1869 44.4566 1.76915
1 7.64061 49.2775 29.4974
1 24.6392 14.9782 37.7139
1 8.40036 32.154 5.5665
1 38.8335 22.7121 40.1855
1 26.9488 3.36983 38.2524
1 42.4172 12.3399 14.3919
1 11.824 28.5201 35.6368
1 0.215877 9.70305 40.1392
1 19.7798 47.0125 2.42996
1 34.8913 24.1582 45.7844
1 13.2112 24.9832 29.0641
1 46.3849 42.4915 28.2215
1 22.3794 5.74157 15.027
1 5.07138 7.80539 25.844
1 12.9333 15.0161 12.4593
1 2.94375 13.8897 42.1773
1 21.5958 11.917 18.6451
1 3.26219 46.8213 17.6243
1 7.61121 44.4806 24.3025
1 47.1168 45.7363 6.29093
1 4.23499 19.0042 45.9931
1 48.7056 16.5824 28.1914
1 47.2867 16.0574 20.8093
1 3.52121 2.944 3.00623
1 32.1678 10.2744 16.1674
1 29.5281 19.7916 26.1115
1 33.3246 6.37203 0.65365
1 17.7828 4.51175 33.1149
1 4.84385 35.993 24.1856
1 24.2007 17.9749 34.5763
1 33.1756 6.29976 40.4406
1 11.3598 10.5411 29.9283
1 26.3676 34.4316 8.67259
1 42.0477 14.2268 35.6438
1 31.5493 12.0126 4.13736
1 45.2665 0.299535 35.4738
1 13.081 39.9317 34.2909
1 48.5666 8.51827 17.5321
1 1.85464 17.6921 37.6478
1 0.71583 23.6928 15.4361
1 6.47027 41.0262 44.2603
1 26.3803 31.243 16.1683
1 16.838 2.57655 48.8256
1 35.0029 21.1661 11.1159
1 8.08667 41.6487 32.0192
1 26.0741 2.02285 31.9333
1 28.2288 10.1082 22.4944
1 49.6593 28.4504 24.5648
1 42.0179 21.7887 26.4158
1 46.7888 18.9353 38.9019
1 11.1522 32.5277 17.8459
1 40.4856 29.3055 30.4881
1 35.7848 35.509 25.495
1 11.9863 37.1944 18.603
1 5.33405 19.0736 41.3977
1 38.3888 7.68555 5.9127
1 36.8163 36.2272 30.4555
1 1.54768 40.7218 19.7892
1 21.6426 22.9676 19.3337
1 14.0012 7.10562 38.3423
1 14.8163 48.0676 27.7215
1 6.86182 8.76368 17.9139
1 39.9528 34.7433 47.779
1 5.56693 37.4035 6.10986
1 46.0957 15.1666 28.0634
1 8.72535 20.4611 18.6953
1 12.442 6.4534 19.0082
1 40.8969 32.7578 9.93926
1 45.9303 36.5894 22.8646
1 5.95908 39.427 41.1238
1 36.2903 25.4066 30.9495
1 24.0394 42.6407 17.7888
1 28.2737 37.0024 48.2394
1 9.82984 1.1769 11.7517
1 45.0702 19.0579 5.01577
1 19.8374 15.4589 4.74863
1 5.24933 2.20291 49.0434
1 7.25187 1.51399 15.2255
1 22.5689 31.1781 43.9185
1 44.4384 43.5389 33.3684
1 44.4923 34.4936 39.6405
1 6.11049 5.07531 29.9095
1 6.05162 23.6946 25.0974
1 8.60589 7.92621 4.09199
1 45.3954 18.874 46.6485
1 6.03711 5.85444 0.951839
1 32.5743 29.5197 36.0183
1 28.5776 5.8762 22.4484
1 45.5223 0.200803 16.473
1 17.6935 3.98484 18.5472
1 17.7719 29.5841 7.96078
1 5.90112 12.1442 45.1299
1 18.8908 40.9247 33.7256
1 9.83462 13.6017 42.9456
1 -0.0812138 21.5191 31.7171
1 33.5938 48.4202 40.3525
1 41.5633 40.1139 48.7702
1 6.2506 32.6446 39.6892
1 24.5246 35.9741 47.2431
1 49.4519 25.7805 45.39
1 9.95715 26.0668 49.9152
1 21.6175 14.7301 18.9391
1 21.3826 48.5358 36.1814
1 23.4899 23.4606 28.9823
1 41.665 0.758923 38.2969
1 14.7588 2.82625 12.9411
1 16.7542 13.2807 23.9403
1 46.207 43.4521 0.55555
1 1.27427 32.5872 15.209
1 3.03319 28.3953 31.4158
1 46.1898 34.4693 32.026
1 31.9657 23.5117 38.227
1 0.466568 27.3651 13.1232
1 23.6026 0.783175 11.0478
1 7.08084 27.2063 1.68029
1 7.592 28.5039 20.7043
1 42.7099 15.0823 47.7309
1 12.6967 18.8676 33.3958
1 11.1323 42.4259 15.8235
1 11.825 28.914 21.935
1 8.85584 18.3063 28.5721
1 38.686 42.5565 44.7402
1 32.56 13.2407 23.6541
1 34.1831 16.5168 28.6311
1 21.3281 8.66592 15.7969
1 46.8762 38.1349 5.67857
1 31.3431 16.2323 26.3471
1 7.34314 29.8332 36.1469
1 18.9725 47.9116 40.8466
1 7.8885 35.67 6.33083
1 18.3861 49.0464 12.9984
1 8.17904 9.88749 0.149547
1 39.0302 8.35863 29.5942
1 17.1384 15.9429 23.7267
1 21.2432 3.62532 7.87518
1 12.3646 47.8281 6.49219
1 33.2672 38.3293 42.4776
1 42.5707 46.6414 43.8165
1 20.2596 0.657023 16.6537
1 1.60867 28.1852 22.1335
1 15.0717 38.621 5.21873
1 30.4638 26.8268 9.36863
1 18.7864 28.6933 33.6468
1 11.2647 20.8952 35.4241
1 36.1542 29.3243 39.9391
1 33.8346 35.0015 27.4207
1 3.14373 29.1233 10.1961
1 17.3484 31.2934 12.0447
1 18.1691 12.0272 46.6638
1 24.9542 28.8722 39.8538
1 1.09019 11.749 38.1131
1 28.1513 37.8479 24.246
1 3.45682 23.0438 3.62764
1 32.9437 5.79852 23.169
1 6.51557 16.4745 18.5022
1 44.5485 39.1458 27.3032
1 4.15872 19.7968 25.6797
1 14.9046 17.2554 22.2447
1 43.5831 9.36599 11.2401
1 30.8631 8.80324 48.1771
1 28.2161 15.8717 44.2826
1 40.1211 25.8739 4.82658
1 25.4393 6.69 44.742
1 9.13683 17.6904 47.5416
1 33.4507 38.6947 24.8003
1 27.2646 2.70978 5.63113
1 9.46443 47.5302 2.63928
1 26.6639 27.3913 0.815845
1 4.47997 33.7796 35.6668
1 12.2444 33.896 12.7739
1 18.6475 47.8917 19.8234
1 20.0521 0.865133 11.2981
1 1.03335 32.4266 25.5418
1 28.3909 45.7236 16.5017
1 7.44569 21.8668 26.8256
1 29.9285 9.70645 27.3172
1 37.1517 11.2708 32.1107
1 45.1302 25.6881 39.7922
1 8.27292 46.1833 48.7824
1 9.95344 5.83198 27.8682
1 41.3265 48.2487 23.6269
1 21.0243 9.79849 8.16943
1 9.33483 35.6047 15.906
1 18.5964 16.7526 35.4425
1 35.3264 36.3109 38.9257
1 11.8668 16.0914 2.56025
1 13.2682 31.5798 25.4584
1 45.2191 12.0205 14.1556
1 22.1941 15.0865 11.754
1 45.2952 18.9233 19.0144
1 15.1144 28.1487 25.3307
1 0.848119 37.5717 5.27053
1 10.8726 2.19931 35.5349
1 30.4625 41.2113 16.7402
1 1.46896 48.5575 30.3065
1 3.12213 31.3325 44.8697
1 23.487 47.8267 10.5413
1 39.8017 12.8233 8.38773
1 46.1287 12.0806 37.3204
1 9.9064 28.2333 15.9025
1 9.76735 7.93778 17.5946
1 5.81725 45.2158 2.25673
1 4.48152 9.80292 48.767
1 17.3837 10.41 21.4787
1 41.6189 12.4683 18.9799
1 40.842 15.3662 20.0678
1 34.0776 4.69429 26.8225
1 12.4135 16.7554 39.237
1 42.2076 4.02173 8.44649
1 47.8622 6.67899 26.9519
1 21.6101 36.7714 35.0892
1 12.9115 7.52351 47.2306
1 4.6147 17.3436 10.6581
1 10.5548 9.11493 44.0416
1 11.1906 8.87634 0.578908
1 43.2931 27.356 1.34962
1 16.6194 32.5207 48.6933
1 30.5483 46.1224 2.52626
1 32.7463 7.30141 45.5243
1 7.98869 5.53799 12.0105
1 12.5617 18.8484 13.7246
1 21.8882 29.589 5.36274
1 26.6478 4.33469 25.3919
1 0.800436 46.2712 18.2205
1 10.6832 15.0362 25.1114
1 14.9174 49.3469 40.4443
1 47.589 44.6839 27.2696
1 5.272 9.49997 23.1698
1 27.3365 19.799 43.6073
1 10.7553 6.51667 9.92581
1 7.60614 9.9263 45.4071
1 49.5078 22.4658 13.362
1 19.1376 5.56501 39.9511
1 43.077 45.9136 25.6658
1 19.8834 14.0351 16.1456
1 1.84537 12.9883 30.5664
1 2.71412 6.13218 21.607
1 16.6712 37.0976 17.4407
1 9.76061 39.3975 46.7599
1 47.4558 1.85788 34.6755
1 0.73526 22.1353 39.4591
1 17.7713 0.844674 15.2307
1 23.6175 34.4459 1.65126
1 21.0226 10.5994 29.5339
1 12.2759 39.3521 26.9887
1 1.88473 4.79871 24.1423
1 33.9805 17.8163 33.3076
1 38.0406 40.4967 32.8116
1 11.5782 3.79129 17.4781
1 43.4378 33.8709 21.3206
1 12.6274 33.4277 36.1604
1 12.7986 2.61729 26.6516
1 19.5797 49.4391 6.9089
1 43.1651 48.2811 33.1202
1 39.8702 24.0472 47.9278
1 17.3197 39.094 41.6633
1 35.433 45.9434 12.2089
1 36.6073 35.7121 13.0417
1 16.0234 36.7957 7.40122
1 42.3288 6.41905 20.5453
1 16.3396 2.83144 3.91518
1 2.6147 38.7905 40.5857
1 23.5769 16.669 15.569
1 2.41408 14.5826 26.5541
1 48.0092 48.9064 16.0768
1 7.22872 36.5672 31.0279
1 10.496 39.2181 5.55596
1 7.63192 5.12083 18.8536
1 15.1477 2.44988 17.7519
1 25.3523 8.06364 27.3995
1 21.2362 15.6794 27.8547
1 9.38176 11.726 32.3375
1 20.7371 21.5659 48.2068
1 41.2558 21.2673 3.58266
1 30.6864 39.4518 32.8651
1 1.32516 2.29475 17.4208
1 16.4792 48.3607 25.1598
1 5.22111 4.07591 46.2783
1 30.3892 19.3634 32.9759
1 36.3607 10.6376 27.2391
1 49.6761 36.1928 38.4155
1 6.88591 35.5912 42.2861
1 14.7183 44.7949 30.6638
1 29.8462 47.1099 30.4194
1 30.5474 5.00019 24.1802
1 29.4777 5.85521 30.9435
1 10.3918 30.8855 44.6843
1 39.065 2.73959 45.7214
1 41.6667 1.55042 2.80495
1 29.8055 15.0603 32.9247
1 38.423 10.6233 17.1844
1 19.7437 7.88184 46.3969
1 26.3375 31.2535 28.2137
1 24.8228 30.0764 2.67929
1 30.7254 36.7454 37.9168
1 29.1893 24.6423 15.2942
1 5.14552 11.8972 8.06265
1 30.6975 29.2752 18.7073
1 44.5127 46.7771 35.6885
1 39.4516 29.4803 11.9543
1 2.48995 8.93223 15.8224
1 24.1792 36.9317 1.30447
1 47.9307 2.49699 27.0932
1 15.3119 1.40781 9.2917
1 47.7322 10.5203 41.491
1 14.6315 14.8351 33.0092
1 19.1388 32.3615 20.172
1 29.5444 1.96039 41.0821
1 12.3504 40.332 29.3943
1 6.19415 20.9591 45.2043
1 1.57727 29.215 17.7145
1 45.4032 22.6727 16.1059
1 10.1565 26.7352 34.4245
1 32.5955 14.9553 47.4053
1 11.3744 32.2508 39.964
1 29.4866 25.7195 6.98141
1 28.6119 11.7776 34.3439
1 47.4946 8.90513 0.114499
1 31.4424 40.2503 5.17521
1 41.2594 18.2435 31.5816
1 35.2241 41.668 4.3337
1 14.3844 13.4535 42.4861
1 9.19333 4.0362 29.6003
1 8.12952 39.3739 8.89838
1 31.6323 16.0543 8.97248
1 46.3051 4.20082 34.074
1 6.33857 7.72999 30.4504
1 3.62249 14.6985 0.318779
1 46.4984 45.9338 10.8749
1 39.1855 10.2443 11.8637
1 0.508052 32.7875 37.6
1 11.6047 33.3892 24.0629
1 7.64449 0.0933785 7.9705
1 25.559 12.8429 12.7583
1 28.209 48.515 15.5343
1 47.3509 6.02986 9.75012
1 16.2558 6.70973 20.0184
1 21.3255 23.9657 2.68344
1 36.4163 27.9871 21.2162
1 45.721 25.5256 36.84
1 47.9414 17.3384 8.19
1 27.5167 15.7097 3.16212
1 31.3199 36.196 12.7537
1 8.874 19.216 3.99671
1 33.5239 37.9772 27.534
1 36.9471 9.75918 45.3019
1 44.884 42.0121 3.63668
1 12.2711 25.0478 43.9572
1 35.1088 0.569323 6.84449
1 49.1687 13.4503 40.2227
1 26.5517 32.9803 25.9505
1 8.22005 8.48234 42.867
1 26.5932 47.5723 43.5424
1 6.17459 19.3546 27.2057
1 42.796 22.8284 14.564
1 16.2193 15.6591 0.701171
1 44.3078 30.6104 16.6025
1 10.3962 30.0473 37.8079
1 47.6265 19.8031 11.4826
1 42.2087 8.11077 8.41334
1 6.1852 21.4069 42.3436
1 6.27602 5.29614 23.4642
1 20.973 48.4558 48.1422
1 17.8375 49.5822 44.5797
1 14.4694 8.06346 7.11467
1 14.3197 8.59282 20.6232
1 44.414 39.4664 34.382
1 25.0774 14.7539 41.9044
1 35.1518 48.0431 4.86178
1 11.1283 49.3618 46.9126
1 10.3454 16.3757 7.16553
1 33.4681 7.87855 48.1639
1 15.5517 6.07633 10.3386
1 48.7305 48.9844 27.4476
1 46.6677 14.6267 41.4218
1 15.1798 49.6313 16.3426
1 47.5296 3.96252 24.9029
1 31.0322 21.4736 12.6427
1 47.8778 13.0255 28.0507
1 23.5375 21.9984 17.2117
1 11.5523 10.2576 39.409
1 41.7747 29.9309 0.648298
1 21.4779 44.4637 9.91967
1 47.8732 46.56 3.70672
1 4.16164 22.9662 44.5585
1 49.2768 40.0043 2.69163
1 22.2978 21.8451 13.352
1 6.07894 37.6955 16.8088
1 20.6261 41.751 10.6923
1 14.0251 41.2107 13.9102
1 8.03398 29.5528 11.9504
1 10.3196 21.2452 10.0829
1 24.2076 18.4702 28.6278
1 21.1108 0.985833 27.3203
1 15.4349 19.6092 36.8325
1 16.2642 45.1379 4.36115
1 17.5925 2.41497 11.4534
1 42.236 14.6755 5.08106
1 4.39823 40.0695 33.6324
1 34.1501 18.0098 36.01
1 28.7636 35.0382 15.9975
1 3.50228 12.7725 4.09408
1 3.69223 31.1969 48.511
1 26.4235 16.752 33.2058
1 3.08026 2.49765 43.0852
1 48.4542 8.17279 45.4441
1 11.7115 14.9827 48.0563
1 5.41478 14.1188 2.59135
1 39.5202 3.34094 36.183
1 47.4127 41.095 47.5067
1 20.123 27.9824 44.3039
1 29.3341 42.0497 30.1344
1 0.0977229 29.3111 20.18
1 18.6418 49.3579 31.8591
1 17.8547 44.7164 38.7317
1 30.1692 5.98345 5.04568
1 19.1864 34.444 16.6955
1 49.597 12.3089 9.3071
1 11.2283 29.7596 2.54588
1 38.8615 5.71692 45.169
1 28.7781 23.276 4.96341
1 27.254 12.2506 4.1604
1 36.1147 11.4107 38.5448
1 36.7091 1.62579 44.6257
1 9.23378 21.5666 42.1929
1 23.8573 19.9038 13.2918
1 45.4112 27.1834 2.9861
1 44.0126 6.77208 48.2706
1 45.2648 3.01938 46.2572
1 7.43245 15.0242 15.6305
1 39.3238 31.7502 40.4522
1 21.4977 37.9764 24.2846
1 42.9888 37.9631 31.6321
1 22.3862 29.1258 36.6307
1 22.0087 19.2283 20.4423
1 22.2884 44.5345 7.05166
1 18.1048 16.0187 14.9335
1 28.931 13.9171 21.5275
1 1.42548 4.56227 49.0569
1 1.55852 19.0757 13.6691
1 40.731 5.69842 17.6688
1 11.3987 31.378 4.90481
1 30.668 24.749 40.2915
1 34.5685 20.7543 35.9773
1 26.947 20.2473 10.1035
1 4.78756 23.4323 41.1359
1 36.9619 18.5687 9.97167
1 39.0733 13.9776 46.3168
1 15.1259 9.23828 45.1711
1 41.9423 2.67332 28.8162
1 15.9085 17.3755 16.1828
1 15.1978 36.8141 30.1541
1 36.9617 24.1061 36.4991
1 49.6112 26.112 41.321
1 46.1714 8.54809 31.6232
1 15.7678 15.2415 5.09127
1 3.41475 37.3204 33.22
1 27.9101 9.35677 35.0663
1 4.70857 17.9529 31.8002
1 45.9434 32.2393 44.2784
1 46.4418 10.4414 27.6298
1 33.8877 12.1831 5.14928
1 46.2521 40.5528 36.0039
1 28.2081 26.5053 41.7537
1 0.63587 28.2532 49.2557
1 43.5913 14.5792 27.1998
1 8.96863 11.9864 8.00275
1 46.4851 40.7409 22.1171
1 42.3717 41.5551 8.0363
1 20.0224 34.3622 45.771
1 9.50179 23.8729 46.0189
1 19.5126 37.0986 32.7105
1 0.452991 10.3941 2.71226
1 16.7285 24.7548 33.1253
1 42.327 11.7675 35.817
1 20.4231 19.1541 9.72332
1 6.42622 13.5422 31.3617
1 22.5907 19.5952 41.6429
1 41.6222 3.41587 38.271
1 17.0377 38.9658 38.9611
1 24.2323 28.687 24.4628
1 48.6918 11.8352 36.0593
1 36.6563 4.82752 22.2512
1 10.6909 40.5564 44.5701
1 38.3467 26.234 12.9623
1 12.4869 3.18868 45.7002
1 23.3764 47.3311 39.9097
1 28.0146 10.1026 17.7939
1 12.4986 11.8121 46.3828
1 5.71037 24.5956 16.4944
1 2.31634 24.787 20.3803
1 27.6735 38.6272 4.03073
1 14.3063 23.6624 20.4148
1 16.9301 14.5545 35.0405
1 30.2311 31.848 22.8324
1 3.15698 34.6764 42.3046
1 28.3847 16.1378 28.5235
1 21.716 44.2021 37.6541
1 22.1839 14.2919 14.4632
1 26.0337 13.3947 6.68328
1 42.8844 4.33572 13.9162
1 1.87859 35.7736 44.7187
1 36.6417 34.2082 33.215
1 8.44621 2.71657 2.42621
1 23.0303 49.4663 19.7981
1 34.5324 1.61068 20.6077
1 31.3756 30.6444 11.598
1 33.1346 39.3349 46.8732
1 42.5364 44.1441 39.9804
1 32.0758 24.2073 6.30514
1 0.248854 29.2238 28.8495
1 48.6456 14.4876 37.3444
1 12.8386 20.6282 47.9213
1 24.8129 3.92982 44.5425
1 8.18708 4.29798 33.6238
1 4.81515 28.047 14.397
1 25.8666 40.1519 6.69344
1 43.9365 11.3995 43.893
1 18.6326 33.8842 30.8209
1 5.42356 40.3264 29.0744
1 6.83979 13.6329 26.3614
1 7.99347 31.1718 29.5451
1 16.0584 41.4275 32.0825
1 18.4402 31.7011 9.4714
1 49.3517 42.2392 38.8017
1 32.4225 14.0173 44.7055
1 13.4164 29.6734 6.54841
1 12.8862 9.95392 48.2278
1 49.3104 45.8678 10.7004
1 42.1903 8.29612 41.0842
1 38.2403 36.646 20.5735
1 11.3889 5.21328 5.80492
1 28.71 43.6172 24.6629
1 9.43843 36.2059 11.0787
1 0.93084 0.591035 15.4253
1 3.87389 33.8991 4.94724
1 2.29735 33.3826 20.8139
1 3.20052 14.4495 34.1784
1 16.6057 48.8817 7.20476
1 15.6575 9.99995 48.0229
1 19.2448 16.6328 1.85018
1 33.0291 2.276 26.8646
1 41.3383 41.7757 42.0843
1 47.6945 31.1395 41.8197
1 36.6841 13.9314 16.8194
1 11.8865 34.5915 41.7438
1 7.73728 8.52531 47.8453
1 0.269658 7.00906 43.4754
1 0.139987 5.97576 4.85232
1 14.1071 39.9652 7.3602
1 18.7821 26.0921 45.5533
1 30.8616 38.0459 43.192
1 32.7504 11.2968 44.9834
1 6.7222 3.206 38.7872
1 11.5438 47.9776 11.3372
1 41.6438 15.0625 29.5583
1 0.834008 48.6525 43.8119
1 7.11419 25.7526 37.5829
1 14.4341 34.2602 31.2125
1 46.4282 7.10058 13.8679
1 24.5821 13.8266 24.5093
1 4.81197 35.3052 16.0629
1 12.6159 27.3825 23.841
1 40.046 31.3111 28.6249
1 38.7646 32.2741 12.5803
1 24.8186 20.4325 34.5482
1 15.6256 46.5926 16.1257
1 36.1973 32.9829 28.7086
1 2.45696 5.48966 44.8312
1 42.6217 48.2535 10.2058
1 18.0936 25.1349 29.0731
1 21.7745 1.64402 34.7727
1 25.7682 26.8861 23.7209
1 46.0339 21.5726 13.174
1 17.5389 8.21729 40.1051
1 38.6203 20.7511 2.5185
1 3.7894 7.03754 8.71164
1 34.6481 25.1807 20.7335
1 12.9473 33.3121 4.23605
1 29.7888 47.9042 35.5319
1 42.2955 43.3624 28.386
1 19.1272 30.0839 23.0222
1 2.58443 5.29537 32.1498
1 12.255 48.237 36.0569
1 1.67694 26.5386 1.17811
1 35.698 17.2201 43.5238
1 7.72589 9.17637 24.668
1 29.3334 10.7254 41.7266
1 43.624 43.7 15.4972
1 1.09483 1.72814 39.6243
1 40.9739 48.3104 19.7296
1 23.8799 44.9094 36.6285
1 2.69272 28.9875 12.7873
1 31.8092 0.884149 3.62111
1 40.7695 9.97617 33.7558
1 35.5618 39.4889 2.73231
1 47.464 22.6038 25.3238
1 28.8218 44.8864 37.5384
1 34.4429 19.9389 47.4309
1 20.9894 3.25304 5.37922
1 7.10469 28.3017 16.7564
1 29.6812 19.0614 49.0718
1 44.6499 26.547 21.7744
1 46.8902 43.3715 34.6251
1 27.8103 47.959 20.2736
1 45.8987 35.7719 42.477
1 42.6831 36.5957 20.56
1 3.26578 37.2033 12.1957
1 43.3666 44.3819 47.5213
1 13.2318 43.5187 39.4477
1 35.9822 34.8402 43.9605
1 15.4836 4.16866 22.4444
1 39.7082 1.3954 48.4683
1 9.4572 30.8094 0.450931
1 16.8963 39.0781 1.03482
1 43.4404 21.8959 11.5949
1 44.8427 11.6892 34.8112
1 1.47734 14.2686 44.9263
1 44.7302 27.8165 9.67232
1 35.1233 44.0509 7.7474
1 22.3776 16.6839 32.6721
1 9.09889 15.8033 11.1489
1 25.1113 35.2185 25.606
1 33.7676 20.5996 1.40735
1 12.5453 12.5789 38.5473
1 17.8677 1.35925 24.3127
1 46.0917 29.0179 31.3163
1 11.5911 44.0776 33.9991
1 6.16091 28.3252 22.8154
1 18.1859 27.7805 0.733987
1 35.3383 21.6767 5.59019
1 13.9469 4.09022 15.6635
1 3.02252 0.399338 3.25841
1 41.4687 7.1344 23.2915
1 26.6096 21.4837 32.4594
1 44.6018 49.4668 42.9253
1 29.3308 4.24806 26.685
1 31.9397 29.6774 47.4365
1 29.6266 10.6142 13.3104
1 9.7282 38.9972 13.3185
1 4.29989 12.9791 26.2329
1 33.4493 44.8014 10.4183
1 10.7119 7.65842 7.49445
1 0.630633 35.7706 22.135
1 15.7436 48.3615 18.9176
1 45.2809 23.8065 10.4062
1 15.2584 29.8886 8.6823
1 9.30109 21.9355 20.9199
1 13.538 39.7194 37.4508
1 41.3922 23.4255 39.3315
1 31.5489 0.769279 16.7916
1 49.0336 34.5051 24.7332
1 17.0736 33.0372 15.1505
1 42.7715 35.2922 48.7782
1 6.60373 17.3406 48.735
1 45.069 21.0275 38.4453
1 16.6735 30.1153 30.2012
1 11.6347 46.4718 42.5055
1 49.262 38.7143 7.08325
1 49.2115 25.8468 17.6282
1 0.350946 20.5955 44.607
1 27.5108 26.3692 31.8791
1 25.9122 4.18322 9.27323
1 24.5594 40.9204 4.17568
1 16.0095 35.1851 20.0696
1 22.6499 24.6174 9.04613
1 35.0095 22.8083 17.5141
1 8.77001 14.4663 32.6429
1 20.0878 36.0481 22.8459
1 11.8875 24.7761 40.83
1 22.2074 38.1807 11.7379
1 42.6016 27.9679 34.6418
1 38.0072 36.8713 32.9319
1 12.0978 26.5559 7.10705
1 40.1431 29.169 41.2936
1 35.3284 49.6023 2.81664
1 0.328852 4.48668 33.8604
1 17.5434 44.3348 6.54937
1 39.0744 5.66788 15.0069
1 29.8067 5.44253 2.13799
1 48.6909 49.1608 3.87651
1 27.2296 40.9642 45.7539
1 28.4599 49.6443 34.1327
1 36.2221 23.4466 22.1817
1 7.35024 12.3752 3.95799
1 2.44264 0.522146 33.9491
1 18.4815 6.83744 5.52396
1 2.0723 32.3036 39.9405
1 4.43732 32.0282 42.4936
1 43.5039 20.5991 42.6574
1 45.249 40.394 17.3867
1 12.4694 43.4953 6.19836
1 44.206 42.183 26.8133
1 14.3574 23.1307 33.334
1 21.0033 0.709009 4.78552
1 4.06953 27.4181 19.9982
1 36.2069 42.7517 23.5298
1 33.8073 15.1557 38.0329
1 37.5669 39.6021 36.8505
1 14.3958 10.2728 1.52786
1 21.2544 33.6031 6.50601
1 49.0344 32.0582 49.0303
1 1.34271 2.44978 13.3569
1 38.9739 49.8238 23.0821
1 40.8035 49.5722 30.0542
1 22.548 1.01099 15.2774
1 11.2202 41.4073 10.2205
1 43.3274 42.1848 30.9224
1 14.783 24.2225 10.5604
1 8.22843 8.31726 7.12245
1 29.1034 32.5272 34.1515
1 36.2696 11.0418 23.3225
1 9.71535 15.0638 1.39446
1 23.5836 13.6266 21.2614
1 45.1045 5.34131 24.4978
1 12.7041 23.3358 38.2456
1 10.046 25.535 15.8919
1 8.99518 37.4184 2.15992
1 46.8074 27.2025 41.4529
1 38.8089 25.7271 10.2394
1 46.9351 30.0883 6.61195
1 24.9055 16.322 10.8416
1 0.355477 1.66184 29.4589
1 23.9481 29.9492 17.8088
1 28.3514 43.1232 19.8958
1 30.7078 2.93134 13.9429
1 5.55256 38.3325 9.22778
1 48.054 9.04904 6.68568
1 0.246186 5.70141 19.7649
1 39.4389 8.47929 25.987
1 33.0566 37.7656 39.6499
1 13.9158 33.1049 9.62903
1 5.24677 40.8517 20.3399
1 48.9572 44.7948 24.7643
1 46.3211 42.236 31.0097
1 21.3475 33.4562 0.319992
1 40.2051 35.5963 27.3028
1 26.0112 12.1493 1.68179
1 39.8901 39.5421 22.4406
1 10.8393 13.1375 49.5041
1 38.4136 17.5623 44.0172
1 14.615 43.8329 12.4127
1 37.4539 28.2137 9.15035
1 24.5337 19.1103 10.6974
1 20.5149 2.54356 25.295
1 45.3389 19.8873 16.4309
1 25.0595 7.24644 22.8369
1 32.2624 26.9432 43.6983
1 42.083 29.5088 17.7855
1 40.4337 23.0058 30.1733
1 35.7605 26.8467 3.99576
1 18.6611 43.5838 11.6721
1 7.78068 23.0797 4.34176
1 19.9785 40.7801 23.5682
1 20.088 27.7195 31.1959
1 32.9084 28.2373 8.77096
1 3.28893 48.5933 15.4186
1 31.9202 2.52562 46.657
1 39.8862 49.4634 27.3605
1 41.2033 22.2538 16.8764
1 7.47153 26.9192 48.7447
1 9.3167 7.83321 11.6951
1 16.591 45.8234 49.5825
1 28.2106 42.933 17.0583
1 39.0428 29.5901 1.72244
1 7.22845 2.75146 23.052
1 49.5555 27.4032 37.6529
1 15.1827 31.7027 46.0751
1 25.177 24.1178 24.7244
1 46.3728 46.8597 27.981
1 9.64638 42.0409 48.1661
1 0.293957 23.226 35.3811
1 35.7713 34.138 48.7075
1 15.5291 19.6375 15.231
1 18.9451 40.5559 8.72371
1 10.7419 33.9761 0.757201
1 10.6029 29.3373 18.19
1 4.20937 32.213 38.0023
1 12.4738 15.2541 8.04787
1 43.8071 39.4334 21.2974
1 17.0716 3.48289 14.6713
1 6.47092 8.36296 20.5956
1 18.0334 24.7597 13.1979
1 41.0503 26.5248 8.73796
1 11.8265 23.7032 7.20159
1 29.8891 40.271 19.3041
1 0.738454 19.8864 11.3056
1 19.2181 23.0935 1.40567
1 8.39445 38.6023 32.1871
1 46.3689 28.5883 11.5783
1 41.1364 28.3218 36.6429
1 46.8031 31.2778 8.89325
1 37.1839 0.202382 47.9013
1 37.782 1.34423 27.8923
1 8.82913 5.73389 16.3366
1 24.2849 39.0564 40.9785
1 19.1475 45.3489 18.6401
1 23.243 46.2991 26.2921
1 13.5012 7.79638 34.7869
1 22.3271 7.36213 2.18322
1 2.0372 36.1532 10.055
1 14.75 31.3137 21.8223
1 6.22254 48.8692 14.7215
1 15.7029 13.5673 29.0178
1 20.6707 20.2631 29.9475
1 29.656 34.4909 5.8341
1 45.733 32.3437 5.25459
1 36.5237 29.4474 11.8684
1 25.4142 45.4648 44.5001
1 47.6566 28.4542 49.483
1 48.8625 6.6878 47.6822
1 0.445931 39.3648 11.5059
1 36.8324 29.7038 36.1741
1 1.08439 35.364 35.5644
1 28.1376 29.3288 28.7013
1 6.92545 39.8394 24.3919
1 47.4262 13.2468 13.962
1 42.6695 42.9113 37.4645
1 30.6228 23.2532 10.9755
1 42.7797 8.85736 38.5296
1 1.19908 25.0944 43.4181
1 7.15546 18.4836 22.4975
1 46.6346 25.9582 15.0201
1 5.466 9.45557 11.2956
1 38.11 4.65763 25.1817
1 33.7469 41.2737 26.1811
1 4.54298 47.2 19.9942
1 47.7217 25.661 26.2425
1 2.62128 23.5112 11.5123
1 10.7097 7.74375 30.3173
1 25.4037 33.5318 37.1636
1 34.606 26.5327 15.6406
1 26.3177 42.4732 10.0927
1 32.8153 40.6417 28.6281
1 17.8056 14.6891 27.5857
1 35.6666 25.5644 18.2284
1 33.5249 12.9533 7.77119
1 48.8721 30.5907 33.3827
1 23.5992 37.6397 22.6986
1 1.13351 20.357 27.1133
1 1.27076 0.607104 26.941
1 3.11735 14.1274 15.1064
1 38.8251 38.2669 43.1307
1 1.08745 15.2208 29.0164
1 37.273 18.9999 26.5693
1 30.8782 49.2402 0.650284
1 32.6836 29.0811 25.0134
1 3.26911 48.822 10.7388
1 49.2964 48.4357 38.322
1 17.9144 44.1602 41.6755
1 33.5217 14.2401 26.2681
1 45.149 40.749 48.9086
1 45.6018 7.4354 22.3566
1 21.7722 21.5748 27.7421
1 14.4548 46.2929 13.578
1 31.6549 22.8288 20.2701
1 30.9102 35.3716 35.2759
1 46.9399 38.331 26.7684
1 42.9083 30.7667 25.1212
1 21.1112 24.5112 32.6011
1 36.8722 29.7191 31.6706
1 1.4524 27.287 39.5823
1 1.00336 32.2029 28.1967
1 48.0045 46.2348 16.9159
1 26.4914 7.06203 25.1791
1 40.5582 36.8998 41.6828
1 41.1044 49.4859 8.51391
1 7.05584 25.0136 42.0116
1 34.0964 1.8649 35.3973
1 46.7928 37.6557 8.89839
1 21.9449 47.193 23.3999
1 18.665 4.77041 25.2464
1 33.4766 46.0157 41.6431
1 12.0653 19.1819 10.1193
1 12.9843 27.2402 48.1509
1 44.5987 14.1179 43.328
1 37.9564 31.2428 22.3358
1 48.2413 20.7019 28.8524
1 16.0597 49.6209 30.994
1 14.6091 21.4109 17.0602
1 29.7474 12.5525 23.7843
1 4.59628 32.0815 31.8704
1 17.0492 19.1141 4.96015
1 4.01448 25.9394 22.6257
1 33.4116 40.7192 40.8532
1 43.9721 9.7632 0.912762
1 17.9363 48.6101 47.1984
1 17.7632 13.6833 8.43888
1 5.53109 45.5018 29.9415
1 29.3729 30.6832 7.67481
1 -0.127027 20.2267 1.73347
1 15.5682 9.39898 9.42945
1 19.1561 29.1109 29.0612
1 14.0341 38.6275 17.086
1 1.46538 10.0975 26.3753
1 6.46573 26.5215 18.8317
1 7.06035 38.8593 46.086
1 16.4346 47.0385 29.8251
1 0.948744 12.781 2.83228
1 0.586892 22.6945 29.161
1 46.8243 19.913 8.61429
1 33.4031 35.1281 5.31317
1 6.17126 1.29297 5.86897
1 16.9984 20.96 38.3009
1 47.7146 27.8555 16.7328
1 33.9346 4.20249 30.0985
1 43.648 22.3833 -0.20595
1 13.7611 40.5938 18.9678
1 7.86558 3.72911 36.4897
1 11.6265 29.3391 25.7161
1 3.65735 41.4903 16.5513
1 11.7713 23.7976 10.2225
1 1.29491 38.8487 9.09013
1 16.7173 42.3666 21.5265
1 11.0674 38.8685 36.9429
1 27.7584 27.7476 22.0789
1 6.7476 4.42594 9.89609
1 5.12709 3.28048 18.8961
1 33.1633 15.6992 22.7979
1 43.5574 47.3675 38.3064
1 38.7118 19.0985 29.0176
1 46.1838 35.146 12.5348
1 27.1845 24.0197 45.9688
1 15.2386 41.7465 36.1846
1 43.75 2.97877 34.8142
1 47.5639 48.4057 49.2913
1 47.7137 0.171948 30.4546
1 1.15599 2.94529 22.1279
1 18.7539 37.6431 15.6477
1 31.6737 9.54424 38.2437
1 8.7843 41.6508 20.5564
1 7.25054 29.3879 4.82476
1 5.72619 30.4455 15.7413
1 7.61382 44.1179 14.0059
1 18.5793 47.2097 43.4283
1 40.9581 39.0785 17.5151
1 35.0426 44.6916 18.4994
1 47.7091 36.9484 24.6049
1 26.1832 47.4475 22.2037
1 11.6621 35.9717 14.6073
1 46.4741 37.5125 1.28589
1 24.3325 48.7946 42.3428
1 19.115 12.997 22.1868
1 27.8295 35.4722 4.62481
1 49.3141 37.1369 44.5019
1 44.493 0.125763 31.2835
1 33.2373 29.246 33.1977
1 12.0181 42.6867 23.2406
1 40.4502 32.2072 38.0868
1 14.5345 15.1596 44.2573
1 6.11634 16.4338 26.1143
1 7.36239 30.0228 48.3619
1 25.5796 36.7208 39.1483
1 41.0581 16.5602 38.291
1 1.09599 7.69329 31.3511
1 20.4307 41.2838 43.6648
1 41.7678 30.3991 32.8168
1 32.0699 28.2035 4.9792
1 29.9853 16.1138 39.6656
1 32.8295 15.1765 33.9333
1 24.1288 41.0428 39.0372
1 4.94828 25.4576 48.3115
1 37.5672 34.1623 20.45
1 43.7254 24.1493 33.1903
1 13.3077 0.727763 36.4862
1 49.2724 2.22681 11.4178
1 19.9327 39.7325 35.8911
1 43.84 33.5859 17.1539
1 22.1309 43.8471 47.1507
1 21.1123 20.4887 3.05547
1 9.57172 32.1557 13.536
1 0.597761 15.1096 49.5482
1 30.2999 25.5638 12.0089
1 23.7741 27.6149 47.283
1 36.8971 7.22272 45.999
1 13.6235 46.554 45.7423
1 5.05943 27.3969 10.3477
1 36.7921 6.99243 48.7864
1 15.9233 31.6409 24.3978
1 37.662 0.421956 10.1813
1 9.53237 25.2973 22.2944
1 6.92159 45.9642 43.7604
1 9.78176 1.98794 22.8819
1 8.16993 2.24866 27.6892
1 43.1448 4.29342 47.1633
1 5.56051 22.5379 38.6638
1 3.58143 17.0074 22.2465
1 8.93363 8.86187 27.6316