4096
 Atoms. Timestep: 1680
1 48.3158 22.9708 13.0045
1 2.50786 13.0265 27.5212
1 12.9648 6.95005 19.5648
1 33.1604 29.8139 11.6945
1 0.665179 9.98032 3.04311
1 43.001 8.14934 27.1476
1 21.6409 21.0826 13.6351
1 14.3079 0.4252 20.4848
1 45.5465 31.8495 33.3091
1 16.9422 15.2737 7.68807
1 1.7831 3.20581 37.9253
1 33.8298 28.347 48.8312
1 38.021 30.5985 24.7894
1 1.68995 36.4979 33.6914
1 21.5202 3.43986 9.99499
1 0.698434 37.4443 5.11164
1 7.27708 14.7388 43.1822
1 45.5713 17.9081 9.92455
1 28.4216 28.8617 12.53
1 25.1681 43.0128 35.0798
1 19.308 31.6244 13.2721
1 34.3563 1.94933 24.3403
1 17.2041 47.4521 13.6559
1 21.6637 42.2737 23.331
1 30.7228 13.5847 15.5883
1 49.7192 16.4067 17.9574
1 13.0564 40.5308 24.7266
1 44.0456 21.2545 16.1517
1 45.938 9.96605 16.1147
1 42.8735 47.6668 23.4894
1 8.26255 5.77759 0.547823
1 31.8001 12.803 25.2489
1 35.6853 33.4724 7.34487
1 6.0554 7.92765 22.5479
1 13.0679 34.7461 31.1083
1 21.2988 27.315 47.9673
1 20.1915 23.383 1.46632
1 24.1445 43.256 37.5897
1 20.6969 49.3683 4.23393
1 34.3394 23.3607 3.85816
1 6.61183 7.38769 26.3685
1 37.9502 35.0079 43.4946
1 46.0977 14.3501 14.9978
1 37.7782 39.8451 5.60261
1 13.8837 11.193 9.33341
1 39.6741 8.63963 6.92427
1 15.2132 15.6914 47.5303
1 3.50324 2.73823 20.9621
1 19.903 35.2219 32.9487
1 7.25883 19.4126 39.4515
1 41.9026 19.9627 7.70669
1 22.2206 0.407794 44.727
1 46.3956 16.9079 48.9045
1 25.2911 18.7752 28.575
1 22.6536 24.5106 20.2417
1 16.114 47.3395 2.19669
1 44.2695 18.2698 7.61616
1 3.82836 1.86472 23.8342
1 14.6248 31.4307 10.2501
1 1.50897 44.4151 19.7459
1 19.6116 39.5647 28.6939
1 15.2229 12.2566 38.0229
1 15.2039 3.02266 42.4731
1 4.47761 40.2045 34.3807
1 13.2888 44.3824 4.33639
1 3.73417 32.7308 10.2948
1 2.36763 10.5367 48.3249
1 2.76662 32.5083 42.0059
1 16.496 40.5664 2.29635
1 28.5845 10.1756 47.4569
1 26.1059 26.4852 22.5807
1 38.2853 34.4309 10.8549
1 43.1078 46.7841 3.38642
1 28.5752 47.4524 49.6259
1 19.8429 48.2811 23.5279
1 43.3577 15.7094 6.87711
1 8.57243 17.4454 13.9077
1 7.55248 43.2158 36.1567
1 27.8503 11.5762 13.6641
1 33.5644 38.6162 14.4535
1 28.6695 13.3337 35.9058
1 14.0256 17.2566 19.7408
1 5.50437 27.5015 30.2637
1 41.6975 14.9407 15.4763
1 15.4517 28.4961 8.67975
1 31.093 22.0745 15.8527
1 46.5262 13.629 43.0874
1 41.1536 17.0899 10.3796
1 43.269 34.5537 4.15681
1 19.8821 26.3815 19.1355
1 5.24301 13.6682 41.456
1 12.2151 1.53928 12.1296
1 28.0163 34.9328 19.2645
1 9.48562 36.5673 14.8067
1 21.6548 36.5475 45.7434
1 23.672 4.83575 45.9133
1 9.26442 9.52811 18.6084
1 5.979 5.38896 28.1028
1 32.0662 16.2685 33.1467
1 35.0258 28.5744 31.8571
1 19.6316 17.8816 12.5924
1 30.0977 13.2157 45.5011
1 20.9757 14.5334 30.6004
1 42.6429 1.58605 42.8098
1 28.645 39.7147 33.1737
1 24.6556 24.7633 6.50331
1 1.89985 2.82446 27.4415
1 0.319843 2.85473 29.8718
1 42.8617 45.8854 25.5989
1 4.4115 19.4229 19.4155
1 41.1343 34.3429 12.0395
1 34.4936 28.4331 9.32654
1 30.6068 43.5614 45.0825
1 39.5201 0.929384 17.5912
1 12.5141 26.7604 21.2576
1 47.2745 32.4433 9.59835
1 1.14018 46.714 24.3989
1 31.7894 19.3104 10.5082
1 17.1369 33.5864 22.9635
1 6.42829 7.24583 30.2433
1 18.733 46.3804 26.3772
1 2.65344 47.9289 29.0431
1 43.7802 21.3994 49.3909
1 25.4646 10.4943 18.6338
1 44.7718 44.8082 43.4112
1 37.6572 27.9597 23.8179
1 45.0458 26.4858 22.3616
1 2.25094 12.2673 35.7023
1 11.3498 10.9146 48.1215
1 25.7413 43.2858 17.4466
1 38.7138 10.1323 46.9022
1 30.6563 47.8247 6.10026
1 11.2454 33.4978 45.6012
1 7.61691 9.00216 14.7484
1 12.329 34.7208 41.7736
1 16.7229 42.8147 21.2224
1 4.03609 46.4061 0.0343595
1 36.8369 17.5026 45.8273
1 48.8829 32.0203 16.5373
1 34.6173 49.6518 45.1779
1 17.8113 27.0376 1.76787
1 35.688 7.36456 10.82
1 39.5554 14.8746 26.3458
1 40.5493 28.228 2.83232
1 36.7022 11.5182 4.3222
1 12.5407 10.5524 30.0848
1 23.7561 3.48489 18.1261
1 6.61862 42.286 42.9076
1 21.8613 21.4901 36.4042
1 19.8272 9.72307 0.386836
1 14.5264 44.5165 12.0525
1 1.93752 30.6033 13.2551
1 10.9528 30.5061 12.5584
1 33.5736 30.0695 42.9515
1 45.533 22.262 25.2631
1 4.0343 8.98703 46.4201
1 20.1732 13.4907 47.8421
1 17.3208 37.8764 7.50445
1 16.2669 42.6006 32.4166
1 23.1432 32.3605 35.2164
1 39.4091 4.15117 13.2225
1 50.0049 42.5357 13.0275
1 33.9722 38.5873 23.6116
1 15.0103 5.60717 41.7965
1 22.2471 6.38688 2.96957
1 29.3105 8.4755 35.5906
1 30.6239 0.158133 12.3933
1 4.44212 9.69111 39.0173
1 48.0993 4.66848 9.3707
1 19.1523 42.8221 26.0488
1 26.0366 38.3947 30.1452
1 24.9119 4.97593 11.3864
1 3.60622 9.60381 12.6362
1 29.6569 12.2495 0.572519
1 47.2651 22.3824 2.12173
1 10.8943 35.124 18.1519
1 14.1314 33.4728 13.4024
1 43.4905 41.4444 37.7354
1 25.6 30.1599 20.7599
1 12.774 1.36081 18.4116
1 34.64 4.67917 23.959
1 40.9295 11.8708 21.7444
1 1.79592 3.78964 2.60622
1 44.558 18.7578 13.581
1 47.2145 8.46748 39.3796
1 31.8061 28.5734 19.4188
1 4.11554 40.5784 48.8016
1 27.2037 27.3955 45.2369
1 23.533 0.595529 40.5233
1 16.2429 2.14495 3.09068
1 14.4098 7.50436 15.9499
1 31.3141 13.3512 33.4192
1 -0.0386547 38.5054 29.823
1 42.3369 36.9162 34.7271
1 14.6536 40.1794 35.8552
1 4.77224 6.96056 32.4266
1 9.60514 24.7581 15.8192
1 46.8335 8.50432 27.1467
1 10.9087 11.5165 6.06061
1 0.98013 33.9434 49.6208
1 43.5932 19.4279 1.5437
1 47.5159 15.7652 29.7806
1 4.7013 46.0679 29.2311
1 42.0584 27.4654 30.6624
1 36.9062 32.4154 23.6704
1 44.4107 32.0853 20.6632
1 11.742 35.1903 15.5451
1 40.9043 7.70526 49.6673
1 14.5192 41.846 7.79256
1 14.2982 28.694 49.4204
1 9.98963 26.0503 36.4366
1 14.8544 49.6811 44.6311
1 39.8401 25.6826 7.24661
1 2.32386 42.8063 8.65899
1 13.4133 39.5925 38.149
1 11.3431 43.0533 35.8585
1 49.1027 29.2198 12.1486
1 18.8381 5.48677 45.1739
1 26.486 16.7883 5.39359
1 22.0865 29.2753 44.616
1 47.9603 21.6847 49.1923
1 23.1336 17.1886 7.26008
1 36.1513 25.6548 10.577
1 7.58959 11.4799 29.7997
1 48.5407 6.80566 35.9799
1 9.7692 15.9128 38.4795
1 47.1714 2.53434 8.25801
1 30.32 28.8135 9.65062
1 22.0838 7.31158 28.2175
1 18.3404 10.822 13.1636
1 32.843 5.31355 35.152
1 29.9947 14.2942 43.1107
1 2.37128 43.6914 33.012
1 10.2675 31.5412 33.0422
1 20.9155 25.9855 30.1087
1 0.511407 39.8245 37.1794
1 37.4585 28.1232 13.9936
1 1.56095 46.1024 49.0067
1 40.5552 38.7855 28.9995
1 11.3146 26.2001 17.8012
1 16.654 3.17095 26.3691
1 10.4283 38.4524 31.3647
1 31.0616 2.24286 16.0262
1 4.19015 45.6696 22.1443
1 -0.0970925 8.54641 39.7427
1 23.0542 30.0793 22.7432
1 34.2509 10.8212 49.0805
1 35.3588 12.2972 35.6403
1 32.0079 3.82688 13.847
1 5.8233 46.7067 10.9821
1 19.8418 47.7203 29.6646
1 33.9677 6.97927 2.24659
1 19.9294 28.3665 25.164
1 30.0845 26.4872 41.9274
1 46.0178 47.8315 9.36924
1 41.0789 32.7351 35.9693
1 17.1041 18.6346 6.20257
1 47.4353 38.7075 40.4446
1 2.55999 49.7749 35.8292
1 20.2403 22.7771 7.64123
1 36.9196 11.0562 12.8673
1 19.2224 43.9667 13.9807
1 30.6257 36.8034 20.9157
1 38.512 41.8966 47.7365
1 26.6364 3.88531 6.82838
1 37.1734 16.7988 6.4271
1 45.5049 26.6681 3.29314
1 15.0342 43.5663 14.819
1 29.5691 43.0351 42.1857
1 31.5047 29.7467 30.3109
1 31.6897 9.72627 35.5326
1 13.9438 12.1207 24.6093
1 49.6957 33.3482 7.18831
1 12.0001 7.47344 37.4136
1 8.96983 21.1895 20.4185
1 16.3594 7.34664 7.68577
1 2.07786 2.50591 10.5263
1 10.9832 32.7437 14.5786
1 35.4463 23.4832 22.1287
1 45.2436 19.7795 28.9712
1 3.41768 15.3329 25.8838
1 11.7083 45.3629 2.44224
1 47.5414 18.5547 29.1173
1 19.1395 40.9972 11.9125
1 38.3563 42.7071 29.3999
1 22.4167 44.5033 24.504
1 18.7961 20.5525 29.2233
1 23.7671 45.8783 1.80882
1 18.3678 33.7698 40.1419
1 7.08334 42.399 25.6822
1 43.672 0.315567 21.4687
1 17.6119 5.52571 48.6093
1 19.784 38.0087 11.3356
1 8.93111 12.4112 40.9783
1 14.5782 27.088 40.3628
1 11.832 24.7131 43.3265
1 47.3163 19.0663 44.2929
1 25.6762 22.1321 33.3909
1 43.143 38.9973 27.2817
1 17.6623 16.8553 16.4346
1 43.7527 29.3844 35.7486
1 32.21 38.7721 19.5162
1 0.867747 7.03479 46.3326
1 11.1645 10.5649 20.1601
1 13.776 12.4293 17.6938
1 14.0652 11.0426 14.2935
1 29.9375 30.5922 7.50253
1 47.3774 38.4535 10.8607
1 35.6416 3.15425 11.8007
1 38.0894 37.2892 16.0159
1 4.95894 24.651 29.8365
1 48.628 34.3939 40.6772
1 6.12819 25.5939 48.8365
1 22.6509 12.6194 7.81386
1 15.1706 44.6955 23.2739
1 0.70173 30.5709 48.5021
1 32.5124 2.82282 36.1369
1 28.556 28.522 40.3317
1 24.1986 1.07908 32.2186
1 46.1507 3.2837 15.9326
1 37.4361 37.5387 32.0951
1 48.775 46.8945 33.0385
1 41.548 15.9866 49.0081
1 12.0791 20.6848 45.5299
1 25.2285 15.8137 49.8421
1 27.1307 26.2505 40.0488
1 7.64766 6.16874 9.12464
1 12.6824 21.412 32.7108
1 22.4956 46.7158 35.3779
1 24.2728 28.0514 19.3025
1 38.0062 25.5937 15.4106
1 23.9228 8.57445 17.5407
1 46.3269 15.4761 41.1866
1 31.0917 30.1102 22.9132
1 4.5259 14.9489 23.3797
1 33.7773 13.0588 23.4969
1 48.9644 33.5862 36.2707
1 18.9783 40.8983 5.98994
1 2.45081 29.6106 17.8108
1 23.6806 22.1281 23.5248
1 1.74229 8.40722 23.3015
1 40.7014 22.9406 42.6256
1 44.6397 0.561914 38.3503
1 29.2572 5.9177 40.813
1 33.7029 29.6522 5.10737
1 36.6305 25.558 41.8034
1 28.4231 3.46471 19.7918
1 16.1661 36.9965 37.345
1 39.3714 23.6732 32.4653
1 39.7428 45.2333 9.77362
1 3.93957 48.1291 20.095
1 38.0854 27.2574 47.5007
1 15.7134 9.72735 38.854
1 30.0302 1.59801 9.42539
1 7.88376 37.974 36.4029
1 8.15282 47.7072 30.0254
1 46.4198 19.5284 5.663
1 41.5735 20.9625 45.1177
1 20.23 1.90133 21.7887
1 33.4125 0.573001 22.0297
1 27.842 28.477 30.87
1 21.6812 32.4808 9.60008
1 30.1108 5.43277 20.6414
1 15.7201 18.1903 42.9563
1 1.74155 44.2114 22.6199
1 39.0717 1.42158 4.70745
1 3.38061 29.6009 1.36735
1 47.3517 1.6568 37.7925
1 15.6017 12.7919 42.2903
1 9.58161 41.5686 39.8996
1 18.3887 8.65205 2.64199
1 46.9215 4.84958 5.42282
1 3.17344 8.16135 14.8775
1 27.6584 21.8174 1.26958
1 37.5543 7.46288 8.95302
1 0.9588 45.3668 9.89663
1 45.0407 38.0384 3.66883
1 30.2257 39.1123 3.84976
1 23.7829 39.8228 10.9255
1 26.5976 2.48229 45.3925
1 16.3137 7.52993 37.4735
1 41.9215 3.73678 10.368
1 35.5216 29.3008 22.2658
1 19.7153 8.87335 5.01881
1 19.5222 21.1873 40.7648
1 9.919 15.1038 43.1792
1 5.82968 28.5622 2.29086
1 24.3564 18.3884 33.6981
1 3.11225 17.2932 42.0027
1 1.39093 19.4085 19.5881
1 35.5696 28.6865 44.2843
1 31.3887 12.0487 6.59167
1 28.8601 28.9366 49.0524
1 14.4798 36.057 9.92943
1 23.7408 10.8928 31.3803
1 31.1607 1.74709 31.9356
1 5.52548 5.14732 11.8851
1 5.56211 14.3303 7.46714
1 29.7059 28.5478 21.1981
1 29.1679 39.9284 29.1205
1 27.3199 7.12982 25.1523
1 7.26554 10.0683 7.48773
1 -0.102577 4.63121 23.6549
1 27.2243 31.9956 4.04138
1 2.09032 23.8515 44.3173
1 4.34285 22.8823 16.3298
1 26.6725 16.9447 17.9582
1 49.0052 46.9052 27.1652
1 29.5189 9.72875 20.1685
1 30.4985 1.71559 42.3966
1 25.3699 46.0386 30.6498
1 8.0589 6.51816 13.35
1 23.5866 36.3723 18.1346
1 15.4193 39.1631 29.7592
1 14.1165 35.6947 37.0077
1 40.0196 36.8718 3.5437
1 17.0187 14.7121 27.1195
1 23.8856 26.2963 37.0011
1 30.0027 41.9995 33.4404
1 22.5227 9.65389 26.2143
1 1.97803 40.9959 16.5748
1 9.49917 33.0928 41.0453
1 4.43564 46.3621 24.7599
1 27.0697 33.855 34.5439
1 14.1787 3.08885 12.8754
1 24.0601 14.7782 36.5349
1 17.633 31.1181 24.0622
1 10.5139 45.8238 45.2093
1 24.7363 27.8636 49.3124
1 8.02408 14.5756 35.6987
1 21.3801 10.3217 32.452
1 12.5903 8.19116 0.970856
1 7.85719 31.1571 45.5257
1 22.6148 22.5973 33.0272
1 4.41453 0.726919 14.0098
1 1.70739 13.137 47.0944
1 15.698 36.668 33.1866
1 37.3481 1.47206 21.8961
1 40.6407 23.9074 47.8879
1 7.54504 44.7893 44.0158
1 22.8412 49.5319 10.8165
1 9.63759 17.5936 20.4603
1 19.7462 38.3802 22.3613
1 44.0576 28.7607 22.2979
1 4.87222 0.705387 1.82393
1 48.3118 14.6533 2.57261
1 6.30987 3.64463 42.7169
1 45.2388 21.8229 22.5286
1 42.0333 42.0753 4.29041
1 24.9575 48.4768 47.8253
1 6.98179 10.8549 18.2824
1 11.7796 0.750697 41.2482
1 48.3776 38.0239 13.2159
1 3.84769 49.1558 38.5186
1 9.55585 19.7529 15.3766
1 15.4974 18.2803 26.292
1 19.8874 39.3224 49.0414
1 48.4876 30.9364 14.2107
1 3.6199 17.626 7.72842
1 -0.333101 13.2574 31.6147
1 24.1068 11.5335 28.4686
1 4.88935 33.6132 47.5343
1 36.5062 25.2731 28.4084
1 48.4816 33.0814 12.2493
1 25.8692 15.6626 32.8945
1 47.1001 13.3872 33.2615
1 25.2667 31.6442 23.8488
1 7.31737 46.1198 41.8275
1 8.8821 41.2449 44.6221
1 26.0062 19.1907 36.6492
1 7.85482 24.2576 25.9373
1 25.846 28.6487 16.1069
1 39.5453 0.487649 13.2351
1 24.4092 20.2448 40.7659
1 29.3156 3.50713 23.1134
1 45.6504 0.936137 2.72977
1 25.8526 3.63407 47.8135
1 33.1039 46.236 43.7308
1 6.71713 0.341466 26.2359
1 35.3303 36.6859 21.3721
1 30.4067 19.2483 36.0172
1 0.967386 2.03908 40.228
1 1.83941 42.2365 49.2442
1 45.3152 12.7781 22.4317
1 1.52579 1.2266 31.6224
1 15.2663 0.793349 49.0259
1 48.1688 9.52307 20.981
1 23.7267 16.4374 46.862
1 6.73897 43.3859 1.99707
1 17.1884 26.9209 46.9888
1 46.8487 37.1746 22.5013
1 33.2282 19.6163 23.3217
1 47.495 5.36443 20.6068
1 3.34851 48.8678 11.8425
1 46.6524 9.04224 44.1771
1 4.47201 24.4926 13.5002
1 40.4697 41.0277 12.6066
1 19.9044 35.3887 15.9946
1 16.7324 20.0794 44.6829
1 47.8045 48.4093 21.9247
1 18.0804 11.7611 10.4164
1 17.6979 4.02198 24.0938
1 16.1879 36.3854 18.7714
1 4.78172 15.6786 2.80049
1 6.91115 19.1925 26.4733
1 10.5131 25.1929 2.51734
1 18.5754 28.1335 49.0399
1 30.4954 18.1002 40.7335
1 6.83304 26.0279 12.7328
1 25.4168 40.6366 34.3937
1 14.215 40.3038 5.68155
1 43.5985 6.2685 18.6357
1 25.7764 8.69688 44.8855
1 16.6302 13.6784 19.5727
1 48.2467 12.4589 22.7105
1 34.6783 19.6361 42.3852
1 11.9904 16.2298 12.0329
1 40.6392 46.1738 48.1125
1 45.4265 34.9114 34.3029
1 21.4501 45.3264 38.9845
1 38.2564 28.7948 18.8381
1 15.273 48.1213 9.15904
1 11.7619 28.5364 0.552706
1 18.6017 6.99932 6.66119
1 21.3947 24.9395 34.6139
1 32.0927 24.7374 26.6154
1 29.0985 34.2556 10.4351
1 38.382 7.84627 31.5578
1 28.3876 25.8653 7.07844
1 16.8386 16.1305 5.1514
1 45.0946 37.0184 40.968
1 32.9997 12.35 20.8758
1 6.14623 27.738 20.7561
1 35.4998 17.4251 27.9525
1 37.0629 11.4261 25.3429
1 35.2755 0.306952 33.9287
1 13.6219 39.4239 16.1122
1 26.7941 32.2353 14.2068
1 31.3744 39.2723 49.5062
1 8.51959 32.5378 11.3857
1 19.0923 30.5716 8.20692
1 44.3562 20.254 34.4162
1 12.4994 30.8795 31.3937
1 38.1374 10.5002 29.0765
1 3.94925 27.2652 44.03
1 47.5881 40.0781 22.1118
1 16.3361 22.8546 44.807
1 19.6181 47.3534 9.80818
1 39.3042 24.9214 27.214
1 35.7292 49.3911 20.6889
1 27.5829 49.6621 48.2922
1 30.3857 17.1847 43.2516
1 14.2733 9.42612 19.7931
1 13.6564 19.1721 2.42532
1 42.4057 32.1639 12.5966
1 37.6984 10.5761 1.82646
1 18.9724 1.53761 29.9649
1 49.279 33.3769 47.2506
1 9.32828 1.27646 15.5142
1 34.1745 38.4879 0.290331
1 7.20235 2.98281 31.9971
1 37.6075 43.3876 16.7604
1 23.041 13.8106 34.2978
1 15.8262 30.7493 19.6978
1 29.0095 3.21081 26.4416
1 48.0527 28.7071 31.7664
1 49.2535 11.3064 7.26321
1 13.2446 39.9569 33.5314
1 39.3686 12.755 43.6993
1 28.3497 17.3662 39.3294
1 48.6097 18.7833 26.6223
1 6.36987 31.4083 37.5777
1 15.8096 31.3159 3.90681
1 35.1853 39.115 16.4157
1 32.1982 42.709 14.9533
1 46.9924 14.6707 19.33
1 15.1371 24.9051 13.3545
1 36.8427 45.7072 33.5159
1 39.5526 45.8969 33.5392
1 43.0655 33.7324 37.5754
1 36.5319 10.4782 43.2166
1 38.4643 13.5251 4.782
1 31.3137 19.1432 14.8377
1 14.6069 13.0436 46.3263
1 40.0334 17.212 20.4399
1 5.82711 38.8666 14.691
1 47.3836 35.535 8.75221
1 9.22756 13.7517 5.79455
1 34.294 10.3783 44.8278
1 10.9258 29.9678 24.2571
1 47.0976 15.7776 21.7094
1 9.06671 9.20032 39.1861
1 31.0736 22.1837 12.591
1 9.64938 13.8671 28.6974
1 1.02762 13.5693 42.5546
1 19.0654 -0.0307223 25.7647
1 3.58983 5.16893 16.6818
1 4.45863 3.62223 35.1924
1 5.93945 32.274 24.3444
1 12.7004 20.5255 0.123161
1 2.04281 17.4226 17.0067
1 37.713 38.6296 29.4485
1 10.7587 3.71677 8.61046
1 18.6692 34.3029 13.1993
1 47.6612 45.6235 9.79654
1 36.5708 37.5343 0.961544
1 23.5952 23.9531 9.0516
1 21.2687 41.6301 42.27
1 35.124 21.4533 12.0436
1 39.5671 47.6243 38.9768
1 29.6396 41.746 38.1563
1 43.4793 13.8914 8.89159
1 44.3368 49.4211 13.663
1 1.82265 46.927 44.2885
1 12.6615 36.38 48.5294
1 36.7047 31.4989 21.3932
1 46.9655 46.6186 15.9429
1 41.9273 20.0558 35.6352
1 31.6862 5.82126 39.6508
1 48.3595 32.0036 4.66098
1 47.3503 11.1956 42.2829
1 5.35271 32.2071 43.546
1 49.7537 5.89819 41.8012
1 39.5911 23.4384 18.2662
1 37.0327 40.5831 1.44491
1 9.52495 46.8198 6.29748
1 39.0947 39.5538 32.4643
1 17.4981 24.1046 1.40571
1 23.4308 10.3498 4.1064
1 30.3645 24.8457 28.911
1 40.5328 48.9539 48.0687
1 17.2941 45.2807 45.2435
1 33.3941 45.7943 31.0834
1 8.97829 49.4165 8.74559
1 44.8019 9.45776 35.5175
1 21.1807 34.7652 18.5635
1 13.1369 37.022 12.3522
1 26.9098 40.4295 36.7456
1 17.4798 11.1659 47.732
1 32.6292 3.04725 43.2858
1 47.8312 38.4543 3.4981
1 44.0762 3.48957 23.1665
1 45.0133 25.2209 24.772
1 16.897 1.66909 20.8588
1 24.3665 23.4901 28.7229
1 4.38315 34.3187 31.478
1 10.5655 26.6106 4.81191
1 38.6563 26.7508 42.9787
1 8.70284 11.051 24.99
1 15.2966 44.8142 34.0065
1 4.15914 38.1602 29.3125
1 1.01729 45.7524 5.57564
1 20.5767 29.2384 33.4755
1 19.2566 41.9826 20.3172
1 45.625 12.6346 1.49067
1 22.4846 30.6927 5.34039
1 13.8953 0.940906 9.71635
1 44.529 7.12518 36.7169
1 34.1474 32.7257 43.2408
1 2.20888 5.28992 48.3542
1 38.5916 13.1934 13.3463
1 45.5954 34.1342 36.6994
1 28.1514 38.7525 5.52663
1 8.10398 48.4299 21.3809
1 16.5869 20.3435 49.0336
1 27.3279 6.73384 38.9797
1 23.3651 14.461 3.75181
1 16.4377 39.623 49.0511
1 10.1209 4.69582 18.3109
1 1.37893 27.8661 40.4269
1 39.5609 42.183 41.1906
1 35.9353 47.6407 35.1495
1 16.7908 24.9448 26.8462
1 4.18451 27.9012 37.0205
1 44.532 40.0923 19.9378
1 1.87638 38.349 26.2096
1 16.6578 40.7199 23.932
1 35.3991 24.2249 26.1998
1 12.9823 33.5149 6.28237
1 29.2123 44.1085 2.31199
1 24.1579 14.8913 11.7609
1 22.8977 5.52395 14.7192
1 30.1891 22.0442 44.5237
1 10.2023 34.5202 38.6619
1 7.44885 17.4012 22.4463
1 36.3881 41.9474 13.7244
1 31.717 8.05494 8.92382
1 26.2691 26.4388 31.886
1 40.6088 45.1632 26.787
1 32.5774 8.00227 37.8001
1 40.6587 16.7021 43.0332
1 24.2075 17.9723 13.9032
1 39.3214 1.92075 32.4886
1 18.8522 13.4589 3.08571
1 36.1214 43.3933 40.4078
1 13.7594 41.1114 1.64889
1 21.1014 35.7516 22.6779
1 14.0523 40.6995 47.6755
1 8.56601 28.6897 22.6992
1 39.9519 39.9563 7.54215
1 11.1017 34.197 49.8157
1 34.2869 21.7667 27.299
1 31.3078 32.3548 15.1595
1 15.8475 46.9787 6.96277
1 28.4123 34.5045 25.0307
1 46.5132 26.301 5.74857
1 21.8076 17.4305 14.8236
1 22.709 10.9946 37.9568
1 44.7527 42.1461 45.4782
1 6.83832 38.2519 25.967
1 25.3514 20.909 11.1404
1 24.2064 43.5979 47.428
1 45.1797 28.5758 8.84588
1 23.6988 36.2424 12.8299
1 47.973 2.47655 43.6353
1 27.4296 7.09756 31.8912
1 39.8941 26.3622 9.82708
1 20.4933 5.93554 8.70883
1 49.4991 2.60467 6.13585
1 8.55961 3.89703 14.3757
1 43.7046 2.24481 14.0024
1 33.3078 7.43164 21.8522
1 0.491055 43.429 16.9138
1 14.7377 28.8748 4.30035
1 29.1721 23.3713 31.1447
1 24.7238 36.6982 37.0568
1 25.2315 37.5632 11.4716
1 17.186 0.698727 10.6473
1 38.1231 22.8659 14.5654
1 16.1925 31.0751 38.2714
1 3.09709 37.1261 2.67969
1 12.0375 2.24815 39.046
1 11.0152 27.6601 25.6019
1 33.9108 23.9392 35.7168
1 15.8631 32.4517 42.6728
1 21.8689 7.24668 18.9594
1 13.4087 7.46948 24.1466
1 49.5305 40.7481 39.6041
1 40.4853 5.72155 11.2098
1 5.84765 38.2889 12.2761
1 1.42757 21.9936 37.864
1 39.906 34.0897 6.92339
1 28.8472 22.0287 22.3819
1 8.2065 29.7574 37.2368
1 2.25315 7.45561 26.8779
1 6.12508 43.8083 21.2252
1 21.3629 37.3878 14.5542
1 24.3709 30.0354 31.6155
1 49.2749 3.13623 45.8813
1 19.5726 6.78879 35.1975
1 30.3615 48.9593 3.03538
1 24.0363 41.0294 23.1085
1 42.0971 35.5443 44.2129
1 14.9191 8.47306 22.1927
1 48.8354 32.1257 34.1295
1 14.3011 17.1968 31.1495
1 27.9437 44.9311 40.8382
1 43.3968 24.4883 42.1279
1 12.2233 42.5493 8.81888
1 1.72257 34.7005 43.9211
1 0.662447 26.187 35.9624
1 40.6744 9.40996 20.8604
1 14.2011 31.0999 44.5177
1 42.2792 27.7087 0.593334
1 34.7867 47.4314 25.3025
1 4.64081 43.1285 16.8857
1 12.0144 30.9256 16.4437
1 37.0237 31.5222 47.276
1 5.2046 12.4977 38.9666
1 47.1319 4.80026 34.4293
1 36.8192 48.5985 1.24487
1 31.1081 32.1753 9.51338
1 20.1479 44.3346 30.1882
1 5.30965 16.2047 14.4666
1 8.66585 13.3556 13.6941
1 41.6674 5.37455 37.1359
1 36.0299 36.7043 6.65394
1 42.3325 41.7831 41.4333
1 34.0483 17.7555 29.9297
1 21.7846 17.8393 9.81611
1 37.7722 33.2276 1.93398
1 37.6791 40.7136 9.30831
1 12.3162 31.9276 35.2715
1 12.4385 9.86776 24.5928
1 29.4246 31.2087 40.8401
1 25.9844 29.1435 9.89895
1 27.3924 25.018 48.5272
1 28.7637 17.5568 36.6007
1 3.37274 44.5533 45.3191
1 31.9164 1.30038 40.0862
1 37.8505 49.5129 29.17
1 20.947 6.13944 22.1269
1 -0.112309 0.560776 22.9453
1 8.31075 12.4879 32.4527
1 42.9778 38.7241 39.1193
1 37.7491 0.669073 38.1602
1 18.8907 18.8697 20.0289
1 19.7389 34.1377 25.0535
1 44.6756 15.1668 2.57802
1 2.57336 14.0268 3.39817
1 29.2509 20.8154 33.9369
1 15.4544 19.4524 34.4509
1 35.2063 4.66786 38.9641
1 44.154 2.06055 18.1769
1 25.759 48.9324 25.7237
1 21.0637 25.2076 11.665
1 9.20174 6.50398 2.96794
1 28.4191 30.175 1.72839
1 10.897 45.555 35.6323
1 37.1563 37.4642 4.05665
1 44.0333 19.3744 22.8389
1 16.2385 19.2993 1.68744
1 6.3865 12.664 34.707
1 34.8455 42.1679 45.1014
1 3.24406 26.4593 15.0438
1 28.0129 32.0113 23.5775
1 42.2949 9.252 40.0732
1 8.37949 44.8101 0.403772
1 39.396 25.6724 12.7813
1 21.7281 27.8948 20.6436
1 40.7284 36.5487 16.1647
1 -0.0284296 14.6938 26.0343
1 1.45985 46.0877 34.0099
1 4.00096 11.2823 33.7577
1 42.4443 15.946 20.0317
1 1.02549 23.0311 40.2613
1 3.99631 17.9737 1.91404
1 23.4877 45.7148 37.4079
1 17.3724 5.42011 12.9382
1 47.4696 37.3436 46.5023
1 49.0985 20.9474 33.609
1 26.2302 1.98934 10.4354
1 8.79749 19.7088 17.8753
1 13.5372 9.63525 40.3679
1 49.0645 22.2133 28.1778
1 13.0038 12.4383 7.42544
1 16.7443 23.1266 35.5066
1 9.35711 18.4448 26.248
1 23.4238 12.5323 44.3952
1 47.5992 1.36376 29.0834
1 43.1 18.5311 15.8476
1 16.4331 47.9921 35.0935
1 14.2643 28.2733 44.5408
1 47.1074 33.7491 20.577
1 12.5341 12.0458 37.3648
1 18.1412 28.685 10.37
1 31.7454 27.2661 38.0244
1 8.92759 46.304 47.7389
1 17.0663 27.4765 37.6096
1 41.0693 5.23605 41.8367
1 3.05659 40.5056 19.0456
1 34.1067 15.2274 5.46761
1 25.4969 38.0096 19.6933
1 0.277481 6.28404 20.048
1 22.813 2.7322 4.66963
1 11.5387 1.60649 30.7558
1 33.3776 20.9065 38.4552
1 23.9339 10.0363 43.3258
1 37.0588 36.8601 38.7673
1 28.9559 32.9518 12.915
1 9.46915 24.0699 41.7943
1 3.81872 2.03501 8.46686
1 9.09379 26.4381 27.2521
1 18.5064 26.8391 6.3263
1 41.3967 34.1009 9.15636
1 4.8821 46.5402 37.8625
1 46.0287 37.7945 19.1826
1 16.4887 27.543 42.4498
1 40.5668 47.5405 12.5787
1 36.4569 11.4137 15.839
1 18.6391 14.2236 24.9166
1 45.7651 0.86424 24.5914
1 19.8064 9.41653 26.2686
1 48.4136 28.0136 36.5974
1 23.5281 39.8805 20.6954
1 21.1566 31.3228 46.158
1 3.11726 19.8769 44.3014
1 0.673539 12.2202 24.5922
1 43.3365 14.8725 24.3943
1 4.48772 9.25013 26.9296
1 44.7408 5.77456 24.2303
1 7.85185 40.4023 34.6578
1 12.9496 44.5269 38.9029
1 22.5065 13.5123 16.7036
1 5.32335 8.83055 16.2731
1 1.23244 35.5387 7.35609
1 36.0294 8.54979 0.783575
1 23.1692 48.4435 22.1671
1 10.1766 3.41252 32.4124
1 40.7653 49.2632 8.48863
1 36.713 43.3261 33.6018
1 17.2428 47.1431 10.9652
1 14.667 40.4215 19.7973
1 23.8857 17.717 1.65318
1 3.76653 33.9271 0.0572714
1 32.2985 5.66108 6.22605
1 19.5882 6.43738 31.4466
1 6.3608 27.7235 27.4014
1 5.46758 40.8824 2.24797
1 33.7113 29.3185 34.2517
1 11.0997 12.3832 43.4037
1 16.2898 43.8564 18.9022
1 4.23209 30.587 38.8862
1 27.4613 9.52749 7.33408
1 47.4325 12.2766 16.0262
1 33.2552 29.2027 23.9686
1 4.53869 44.8303 2.3714
1 36.6992 33.8579 19.1807
1 13.0255 5.60555 21.8017
1 46.4646 44.874 39.1914
1 46.047 42.1725 41.7207
1 41.3931 45.1944 15.6541
1 20.4018 5.79798 48.3925
1 3.21418 5.17269 36.85
1 17.7631 46.7648 32.8507
1 45.0902 15.0312 28.8055
1 16.3982 1.48734 13.4807
1 20.588 43.3579 49.5817
1 35.2317 44.6966 22.182
1 35.0074 12.8675 19.026
1 48.83 45.9512 22.496
1 48.8814 16.6793 44.9066
1 18.8108 3.06507 11.7932
1 33.2934 27.0442 25.7915
1 36.7106 4.64311 5.16703
1 26.3882 16.6655 8.07753
1 7.71831 35.0539 35.9948
1 26.3614 40.7666 31.609
1 9.68763 39.5026 41.7697
1 33.3056 12.9968 14.869
1 27.4599 33.8707 8.15854
1 43.3313 27.4209 26.415
1 29.149 21.0764 17.9109
1 21.6551 13.0323 28.4053
1 36.7978 38.4006 34.7431
1 12.5848 1.13731 25.6744
1 48.3432 12.0088 19.0274
1 9.04227 8.59945 26.4334
1 14.5806 35.7819 27.8154
1 49.0921 47.6282 49.4496
1 32.9581 23.3258 23.2709
1 34.285 21.1271 34.4402
1 9.65277 38.677 24.4088
1 30.1908 30.1898 16.9113
1 21.8264 4.58565 41.929
1 3.97569 21.7174 20.9738
1 43.7939 23.7675 39.691
1 16.652 41.3084 17.8166
1 21.9088 41.4814 33.1069
1 27.5747 5.27155 36.9786
1 13.6066 38.1191 1.79296
1 39.0231 22.92 0.689442
1 33.5746 24.1752 29.6103
1 6.48351 9.63715 4.937
1 9.33732 41.0657 25.7621
1 21.2 11.9008 12.1841
1 49.6799 40.138 27.6224
1 37.623 11.3997 9.92386
1 7.78546 38.2617 5.01421
1 41.4152 20.2012 23.843
1 34.2867 49.6415 12.7885
1 13.5014 9.78515 46.7073
1 21.2504 25.2445 8.61996
1 12.5677 29.9977 8.82604
1 45.4588 1.42529 48.0238
1 0.974822 31.7705 1.74749
1 3.83478 2.33973 16.6176
1 43.429 16.9768 11.4797
1 39.221 30.2985 20.9792
1 37.0298 42.9111 36.4871
1 35.2117 11.88 46.8983
1 15.3511 13.1394 13.9703
1 6.50499 32.0608 19.3627
1 35.8068 46.9789 44.8249
1 43.7956 13.1734 46.7061
1 21.8833 30.8877 31.7651
1 2.26796 33.0197 14.5299
1 28.4023 11.6465 21.8595
1 7.26001 47.3834 36.8718
1 38.1278 38.5268 18.7011
1 18.9966 14.0888 33.6917
1 10.7917 16.028 45.8899
1 23.3683 6.7561 37.4807
1 45.4615 36.3237 11.165
1 45.5281 30.8797 23.1086
1 36.4376 40.9793 28.547
1 40.537 1.15175 21.8608
1 34.929 38.8989 47.5434
1 48.6362 24.5544 40.0966
1 43.1904 16.5165 43.3714
1 47.3238 18.1335 14.4138
1 5.51636 34.3181 33.9942
1 44.9969 16.4718 33.9567
1 19.7026 48.4044 33.4762
1 40.879 20.2655 2.39418
1 12.8203 28.8413 33.2226
1 6.4773 10.5163 45.4946
1 14.2156 24.6431 20.7858
1 11.5954 48.6413 31.707
1 39.2616 13.9535 46.2342
1 32.4835 23.4988 40.3435
1 25.9035 3.43374 39.8775
1 10.0738 15.1249 19.8356
1 25.7207 14.5026 24.2143
1 45.7519 15.4014 38.6796
1 2.02527 40.2926 7.6897
1 6.0173 10.8242 21.4493
1 28.6822 46.7093 2.41799
1 40.1305 40.8693 45.3137
1 24.7463 1.92963 44.1174
1 18.9739 19.5335 24.7055
1 17.9857 36.708 24.7487
1 22.3189 19.8522 32.4769
1 21.969 10.3515 9.2684
1 45.6143 43.0054 12.5292
1 41.966 18.2934 27.2058
1 21.2719 22.7501 22.0261
1 43.4027 4.83475 28.7864
1 42.9953 34.9561 41.6278
1 17.6428 30.8197 49.0119
1 30.2156 9.61935 -0.00404085
1 24.5955 18.0244 11.1968
1 25.9086 25.7077 27.9568
1 31.1446 26.0586 17.6647
1 38.2179 42.3583 11.7031
1 14.4888 15.0574 3.86947
1 49.7825 42.2885 10.0858
1 9.38402 13.096 49.4779
1 43.6869 49.291 28.0312
1 25.358 35.1016 16.367
1 47.7383 43.6467 21.7539
1 16.74 27.7516 35.1188
1 6.6267 9.66411 0.638407
1 4.11637 29.7852 23.652
1 48.1837 37.2875 38.0014
1 28.586 32.1571 20.5912
1 14.6222 32.2396 47.0873
1 14.7292 27.4315 14.1998
1 24.7666 8.87298 14.2313
1 47.8142 40.3863 18.5498
1 25.7901 41.9226 41.5464
1 13.5063 45.4439 6.69615
1 17.2239 20.4392 3.9543
1 35.1956 38.2059 19.0718
1 28.9307 31.346 47.7035
1 47.6797 44.3356 33.2861
1 33.5374 3.19329 19.8457
1 32.9899 18.302 16.6478
1 20.2735 31.9515 40.3656
1 37.7487 29.0835 42.9658
1 36.8279 30.3801 8.37889
1 44.2134 3.61574 30.8318
1 13.4583 16.1634 22.2873
1 27.611 18.8107 30.5163
1 43.5686 12.2446 36.2303
1 15.2865 22.4805 42.0305
1 9.03972 48.3485 44.4666
1 9.91702 5.34242 23.6277
1 28.5807 21.9258 14.0169
1 24.3509 47.8396 40.5865
1 14.0293 0.56252 2.1645
1 31.858 21.2265 8.6193
1 17.2772 16.2257 33.2643
1 34.2091 45.0313 19.8313
1 -0.0125515 44.3237 27.3327
1 15.1963 13.0521 35.4313
1 43.9333 42.9666 47.9703
1 6.50632 18.7077 46.7599
1 11.525 41.0588 16.2595
1 2.51815 7.59016 36.0001
1 23.0158 33.6824 20.4528
1 35.9542 0.0402648 27.0655
1 46.9876 45.7278 49.6936
1 46.6446 29.5318 35.4695
1 24.4962 29.6243 25.6394
1 2.47204 42.1693 30.4664
1 46.208 42.4536 23.2989
1 26.0454 1.44707 7.91747
1 8.35429 31.2609 24.824
1 18.4785 15.8771 3.39427
1 39.6215 7.21677 44.0504
1 6.39598 23.3789 38.9234
1 17.823 29.8671 15.2329
1 18.9795 11.2528 6.57983
1 19.2155 19.3912 38.5029
1 43.4244 1.12303 26.0345
1 12.6906 35.6471 45.0715
1 24.8829 41.038 3.55517
1 14.6237 45.9986 40.2232
1 41.9891 40.8343 19.3367
1 13.9579 48.2692 34.7675
1 19.7306 15.916 46.8642
1 15.964 19.154 31.801
1 45.8337 10.2353 40.565
1 44.1054 16.168 22.0322
1 34.0578 0.702084 36.3533
1 39.0346 35.2655 31.8702
1 7.52432 3.21144 0.496885
1 17.1209 34.7657 16.5592
1 28.3934 5.58687 27.39
1 16.8693 34.8333 26.6647
1 0.938716 2.13598 35.2346
1 5.15918 6.57823 20.3303
1 39.4793 36.7871 37.205
1 44.1602 26.4199 31.9491
1 2.31671 25.6095 33.5785
1 28.361 21.0637 7.73341
1 4.95831 39.9808 27.0473
1 10.0658 20.8531 0.737541
1 39.6022 38.4922 10.2419
1 42.1101 39.3508 31.1454
1 36.2465 40.9344 26.0529
1 26.423 14.3922 28.5442
1 43.5856 42.0639 27.2169
1 49.1199 28.0495 21.1844
1 35.7981 18.8883 24.3326
1 34.2801 41.172 30.0869
1 46.5634 27.7332 13.3045
1 4.92626 42.6114 36.4243
1 0.307769 49.2174 25.662
1 8.14496 44.0673 18.9437
1 17.4672 40.2968 42.6989
1 15.7543 1.76419 40.0488
1 2.05162 20.186 13.569
1 13.4924 48.3581 42.224
1 6.80157 20.8312 10.73
1 47.9838 25.7657 47.4055
1 42.0846 9.89286 43.7444
1 21.7044 43.4924 20.9009
1 13.1295 48.0067 46.028
1 17.3859 27.6528 31.691
1 7.96435 13.2352 38.3419
1 24.3846 33.9965 14.2848
1 29.2363 30.4897 25.4116
1 11.7547 7.42174 16.6804
1 13.7808 3.09913 30.004
1 30.794 8.87788 15.9034
1 15.7617 32.8111 40.1153
1 25.1638 22.7519 19.1709
1 41.2144 2.17099 45.8624
1 40.3348 49.3452 19.767
1 43.2285 30.1419 38.9206
1 4.68924 32.0929 1.67598
1 45.4115 38.262 29.0302
1 13.7922 47.6938 0.430511
1 8.60114 33.8116 44.9763
1 46.7864 49.0973 14.8273
1 16.0356 8.80155 3.76547
1 37.953 13.689 24.0427
1 28.1065 44.3983 14.7834
1 21.9245 24.539 44.5277
1 41.6476 36.8402 13.4496
1 31.3797 9.47302 2.8141
1 18.1648 45.3114 21.7275
1 13.2825 32.9674 25.0199
1 27.8695 9.71809 43.4018
1 19.5763 40.3199 24.3284
1 31.1313 41.7716 40.6315
1 47.1436 47.3547 4.56732
1 46.2524 34.3401 12.5189
1 36.7736 17.0818 17.0153
1 28.837 0.650171 4.7163
1 40.669 34.9934 33.9707