4096
 Atoms. Timestep: 100
1 13.3341 26.4604 6.35294
1 10.7379 1.94432 24.3967
1 10.6476 10.1688 22.8606
1 10.2443 43.7054 15.4331
1 0.725138 4.17774 46.7214
1 42.3198 4.27068 5.77862
1 22.2462 5.00229 9.39677
1 4.64424 16.9169 26.7639
1 37.6667 6.20078 34.1247
1 27.2897 30.045 6.99971
1 37.7034 16.0285 26.4201
1 27.3064 2.11673 48.0766
1 45.4909 19.9972 12.2194
1 37.9146 40.2469 35.9409
1 8.48853 4.38927 47.8627
1 12.8809 14.7125 9.90114
1 32.1488 10.9716 38.9818
1 45.4056 45.031 1.47407
1 25.2102 23.6934 2.762
1 39.6519 38.0824 2.25699
1 2.34793 37.2825 19.9696
1 36.6941 21.7475 30.7754
1 13.8248 46.1319 46.6184
1 47.3503 47.1971 4.64776
1 20.3836 46.1451 14.1532
1 35.5962 23.0178 8.93387
1 45.9929 18.9661 0.593663
1 22.0774 17.4683 9.1752
1 15.3337 47.5932 15.0285
1 0.706731 39.8816 40.5273
1 13.2107 5.89628 13.1778
1 25.8447 9.03589 9.06358
1 48.0481 29.0934 5.89864
1 27.5195 34.7596 48.9894
1 7.93416 19.1348 46.6441
1 29.0832 47.4763 9.71637
1 31.4605 26.0242 18.3769
1 33.4776 21.5338 45.0586
1 23.404 22.7565 12.7198
1 16.4895 46.0821 9.02455
1 29.6506 29.4032 37.3435
1 36.7932 37.9061 17.6507
1 3.0525 45.9397 41.887
1 47.8033 6.59052 4.782
1 11.0913 15.9903 48.5351
1 11.6075 7.83644 45.551
1 6.87336 31.7379 30.5033
1 27.0148 41.5497 46.0093
1 9.31818 7.76739 10.4124
1 0.84063 31.3708 29.0772
1 4.03441 18.2403 37.8371
1 10.2732 29.5049 31.7445
1 6.43763 34.0346 12.1938
1 8.83637 26.1972 3.97693
1 20.7455 5.90967 26.6756
1 11.5717 7.07474 19.6324
1 10.8735 35.3136 20.9086
1 41.4083 47.7977 31.2948
1 37.3475 7.68353 21.8755
1 37.8193 36.0028 12.9975
1 30.8789 28.0199 27.143
1 2.45264 7.41347 33.7274
1 7.09352 17.8921 12.4203
1 21.0162 13.1388 48.5259
1 49.6015 28.7193 17.6069
1 42.4157 9.71796 3.5584
1 48.8231 48.1139 35.2673
1 31.8916 43.5628 48.9626
1 30.8758 20.2542 11.2844
1 2.22321 40.1851 6.62617
1 17.7374 46.355 34.0538
1 41.9867 29.6889 9.004
1 41.1839 26.6918 39.2124
1 37.8449 49.3923 20.9948
1 13.6003 1.61165 36.435
1 42.0298 3.37716 11.9695
1 31.9206 37.2731 41.2928
1 2.76379 41.3384 29.6827
1 12.1144 3.68226 3.66136
1 37.0765 13.5288 33.6342
1 31.5148 35.0454 44.6843
1 18.3693 11.7868 40.423
1 17.5019 20.7237 3.48143
1 16.4675 17.5653 15.2503
1 35.8709 15.8941 2.02154
1 44.89 10.9807 12.2376
1 13.631 17.1271 4.39598
1 48.9532 39.4974 13.895
1 49.7297 19.8197 39.8159
1 11.094 28.2477 2.97291
1 22.5395 1.98358 4.95106
1 39.5385 18.099 37.9361
1 2.19584 4.41771 9.28987
1 19.8163 41.9206 31.1155
1 17.8142 31.6085 4.80229
1 32.5203 29.9459 37.2672
1 45.7845 38.3198 18.6733
1 48.9712 16.6994 34.4923
1 28.7978 31.6275 28.2108
1 5.70908 23.1375 6.70761
1 4.00495 45.4457 23.3994
1 25.89 21.5536 28.6951
1 18.9583 43.7972 14.914
1 22.7385 14.0817 5.53708
1 46.4863 35.4632 12.9499
1 47.0991 35.6105 43.0845
1 43.5651 12.2056 33.2668
1 15.7364 33.2183 0.641191
1 25.9259 24.2706 16.6633
1 15.9864 4.06883 16.9749
1 11.7776 24.0721 14.4291
1 0.265117 34.7296 42.7931
1 49.4405 9.53012 46.246
1 37.0139 30.2684 0.216463
1 23.9265 48.9935 36.1137
1 38.8807 8.93101 20.0989
1 47.7079 20.7159 14.912
1 1.21715 4.50555 21.3602
1 32.2142 37.5171 19.6886
1 27.168 42.6088 11.852
1 13.583 49.3658 3.28212
1 8.36063 3.96085 10.2834
1 0.137109 19.5881 5.4297
1 20.8402 14.5058 19.3526
1 17.5203 43.6411 12.6805
1 18.6904 16.6288 16.8369
1 21.4302 47.761 46.8138
1 4.21713 46.3267 38.0283
1 29.0984 9.84458 2.28427
1 19.2914 15.4446 7.10185
1 15.4722 48.2489 7.41646
1 1.94676 15.4843 19.6151
1 24.8016 5.22916 36.3934
1 22.9428 41.6143 9.17771
1 6.27609 9.10898 40.5859
1 29.6178 30.8285 41.8365
1 44.4966 47.5136 5.96847
1 1.82012 46.6839 20.566
1 27.3957 13.9224 1.09028
1 26.2657 42.0443 40.0596
1 4.13666 30.5966 17.3504
1 48.5099 0.630098 20.9789
1 44.8069 32.6584 7.55081
1 36.212 3.99782 33.0728
1 47.4343 17.7382 5.09338
1 21.9357 16.7358 17.9988
1 45.7885 15.1717 24.6383
1 27.5303 37.1146 44.1007
1 37.1878 4.20066 29.4748
1 4.21771 0.0139588 24.8666
1 28.8984 16.1111 11.9638
1 3.55095 8.20823 8.65216
1 11.7974 19.0168 12.6877
1 29.8746 35.6207 47.1369
1 3.75037 20.3721 8.46602
1 4.90274 12.0782 0.494936
1 31.9334 45.5202 14.6584
1 36.278 3.96747 5.82043
1 18.6966 35.2955 17.0804
1 5.86761 22.9447 46.361
1 30.3061 28.8907 49.6523
1 1.41162 30.9628 26.4654
1 48.1573 41.2613 29.861
1 9.98056 17.0186 15.6459
1 31.3554 21.7418 18.183
1 13.2806 41.5403 16.9729
1 19.3293 43.0921 21.5088
1 4.32425 45.4714 20.4652
1 42.1941 24.8719 13.0899
1 12.5389 12.0295 19.1761
1 9.66654 10.073 38.2048
1 6.53627 10.4576 2.31487
1 20.9258 25.0918 15.8105
1 0.994506 33.3736 32.5918
1 9.41359 4.55542 39.9788
1 14.6486 46.451 36.924
1 19.2932 39.4112 14.4986
1 2.62743 33.7159 4.33458
1 47.2534 3.35572 28.5875
1 22.856 44.2683 8.03865
1 5.97859 14.5753 16.9673
1 3.53817 17.6725 29.8386
1 43.8006 45.6156 7.69725
1 7.9516 30.8178 8.29156
1 31.0587 18.1141 29.7257
1 42.2971 8.34584 21.4584
1 5.00756 10.3491 25.9584
1 7.25684 4.73369 3.03466
1 15.499 40.3612 36.2456
1 15.5013 22.4693 2.49187
1 4.81088 31.4558 34.3456
1 27.7157 46.1487 39.6492
1 39.1587 38.0315 15.9812
1 43.1031 35.0815 46.4629
1 7.44233 46.0226 32.1588
1 31.6267 34.7315 36.4468
1 10.1213 29.4098 5.48858
1 2.50084 28.6596 18.7461
1 8.29459 34.1182 20.5518
1 3.21781 41.3362 8.72323
1 10.3494 5.59743 23.7977
1 37.9283 30.6201 18.137
1 33.3734 2.31969 10.4909
1 0.840622 25.6463 13.286
1 19.9961 24.6817 30.0842
1 49.5866 39.3519 42.9825
1 47.4905 0.7447 29.3159
1 41.5467 46.993 15.9714
1 24.7547 14.0148 22.0522
1 17.7389 19.4076 13.7729
1 29.5982 15.4889 15.4184
1 21.2675 4.10972 24.5223
1 36.5232 28.071 15.1423
1 11.9992 7.84835 5.91049
1 38.0847 30.342 3.37427
1 6.64099 39.8694 31.026
1 1.87216 47.8216 23.508
1 16.0206 39.852 4.02591
1 20.6927 40.2974 8.05664
1 24.0034 19.4538 9.05523
1 0.671284 4.38881 30.5324
1 13.6042 45.7316 22.3877
1 48.9638 26.3888 45.247
1 34.123 47.7461 42.6505
1 19.7068 42.6571 45.9663
1 4.08542 9.58621 34.7854
1 48.578 5.37231 10.0946
1 27.5474 3.65014 13.7165
1 37.9067 38.294 5.52097
1 41.1457 0.757679 19.9854
1 16.1537 5.90169 37.3072
1 5.26915 2.25795 36.7275
1 23.9478 1.66543 15.1168
1 40.0159 10.3425 4.84321
1 46.0397 14.3242 30.2975
1 2.95767 12.9787 10.5654
1 27.4289 20.7904 16.4399
1 19.4877 0.76615 0.66244
1 11.285 30.1024 17.001
1 10.3435 15.4018 20.9481
1 46.009 9.90017 15.9457
1 15.0034 36.8122 14.2666
1 37.214 28.871 42.1671
1 23.8743 26.7296 36.9079
1 10.9495 39.6535 0.332311
1 42.0598 22.5222 21.0054
1 10.4268 42.2126 37.8185
1 26.3719 11.2806 20.0657
1 16.1489 40.0937 33.625
1 43.7813 30.3286 20.2276
1 6.48287 43.0473 17.119
1 20.0926 14.9956 35.9584
1 11.9155 23.9277 21.2491
1 40.531 8.66187 36.617
1 35.7105 42.166 36.1299
1 6.2318 11.5157 46.0312
1 30.5588 12.1106 32.8672
1 12.3757 39.5917 22.8821
1 27.806 49.7918 15.7744
1 45.88 7.33477 19.2369
1 5.69789 6.28912 27.228
1 17.6925 28.2157 6.60529
1 12.7224 41.5601 38.8002
1 48.6222 21.3148 33.3135
1 1.17016 1.90581 44.2924
1 44.0311 25.9038 26.9849
1 30.5549 29.6383 29.3568
1 37.1448 32.3402 23.7182
1 39.0585 14.0666 37.7714
1 7.76638 26.2787 41.4809
1 27.8688 48.9075 24.2931
1 46.1912 44.3159 5.63244
1 11.4895 27.7191 29.3704
1 49.2193 7.99184 11.1703
1 4.13454 1.85645 14.2706
1 32.516 35.1813 26.3693
1 16.1524 35.7329 21.7661
1 15.5741 44.1171 17.7675
1 33.3062 24.6555 39.1593
1 35.9627 46.7285 13.2257
1 12.7749 25.7091 39.0391
1 44.9025 39.0738 0.819492
1 26.3162 25.2547 0.96947
1 46.4327 20.2337 47.5111
1 1.51144 21.5996 32.1843
1 40.542 30.1271 25.8763
1 17.4577 1.85849 47.0545
1 44.4789 7.00568 9.93922
1 31.1738 8.96441 41.7346
1 39.6438 29.7291 32.8813
1 3.78616 9.44827 39.7271
1 15.0189 20.6896 22.8007
1 6.48409 24.2156 36.067
1 5.71594 27.8853 7.76166
1 42.158 15.32 0.951957
1 22.048 42.9849 24.023
1 43.6359 42.4206 17.3317
1 41.4688 39.3962 31.9494
1 32.164 32.9395 12.5866
1 20.5223 15.8116 14.7924
1 2.93458 29.5348 21.0638
1 30.924 22.1653 45.6777
1 8.10535 27.7496 35.209
1 12.2017 0.635099 9.46183
1 35.0777 15.2971 23.1288
1 49.6903 11.0927 0.424445
1 4.67169 14.7332 1.29128
1 46.2078 44.0679 44.234
1 46.7931 22.8928 22.8074
1 14.9676 15.96 40.8703
1 20.5133 39.4158 5.09196
1 2.00183 3.15349 34.2751
1 16.3741 12.9342 10.0117
1 14.4101 1.11596 42.8139
1 18.452 25.8754 1.94523
1 44.6928 22.6167 49.7362
1 22.22 13.1537 44.8924
1 0.0442828 13.4442 5.64088
1 6.75613 16.594 33.2185
1 12.0034 2.91916 19.1153
1 4.62441 41.1702 41.8067
1 35.7304 23.7187 1.33905
1 43.5836 3.93255 47.604
1 34.9207 45.0512 29.4946
1 12.7023 48.6152 14.2336
1 16.0048 17.4851 33.944
1 47.7921 34.6083 18.6649
1 9.79218 22.8767 45.1446
1 34.9289 7.91742 30.9667
1 35.8033 28.0824 32.982
1 38.0238 19.1952 14.3809
1 31.616 43.2825 2.69138
1 42.0822 20.1145 46.1744
1 37.1536 43.6049 8.73328
1 33.5535 27.5071 26.6329
1 12.6221 25.7234 19.6639
1 43.0565 19.5476 29.9142
1 0.378722 3.64106 11.5215
1 47.6173 13.2446 32.4006
1 25.8365 9.12103 0.290961
1 12.302 43.9955 26.8982
1 12.0355 6.46222 43.1541
1 38.9437 20.6922 48.1384
1 1.87991 16.7804 14.9587
1 7.91686 21.4258 3.87813
1 30.7669 24.9423 46.1963
1 45.0326 8.47274 31.6639
1 37.1931 15.891 31.3309
1 49.1391 36.615 12.928
1 42.8352 11.1928 28.7469
1 23.7504 44.9223 25.1893
1 19.2674 12.9931 11.6774
1 0.3638 24.7815 16.0433
1 37.4755 49.0759 29.5864
1 6.5798 9.12554 17.2722
1 26.0165 12.7762 34.3538
1 17.7033 19.5986 30.5582
1 36.9682 47.2343 15.8001
1 26.713 46.6028 18.9343
1 6.45925 7.85275 38.0776
1 26.2543 2.70253 3.11059
1 26.6414 15.4962 9.00622
1 40.7653 3.587 8.07721
1 19.1153 17.8282 22.0876
1 1.79877 7.20897 26.0302
1 38.524 35.9558 22.6306
1 49.0756 23.6286 6.36711
1 16.5047 39.0227 38.1497
1 31.9727 6.97916 16.8079
1 25.4852 48.3428 31.5185
1 49.3644 19.3468 8.41492
1 7.48698 45.9692 40.1113
1 15.6982 11.2578 32.4326
1 21.6067 37.8869 25.2174
1 31.3235 47.7213 12.9137
1 48.1653 10.3131 24.765
1 48.1308 48.9517 23.2223
1 3.35746 9.94163 49.019
1 37.636 46.6907 26.6877
1 20.5904 48.4849 23.808
1 40.4269 5.68238 33.1003
1 1.79171 36.9973 26.5856
1 48.6246 14.5361 24.9942
1 43.275 39.5236 17.1877
1 14.1877 42.7301 40.8413
1 1.36178 6.18095 1.71294
1 37.8353 21.3434 5.38071
1 24.6601 5.05418 41.6286
1 10.3783 20.8376 11.52
1 2.14702 14.6247 25.7888
1 40.406 44.6178 17.1111
1 13.7977 15.831 0.105326
1 7.4868 49.6699 46.1943
1 5.88531 47.8192 7.44961
1 19.7362 2.5684 20.5984
1 47.5327 39.118 36.9629
1 18.5024 43.1998 26.7296
1 22.5118 23.6394 30.1309
1 30.0065 26.7572 37.8955
1 47.9751 28.8101 19.8066
1 32.2396 44.6525 25.6764
1 48.2455 42.0166 33.4024
1 8.51221 9.46407 27.392
1 0.742223 13.8157 48.6634
1 46.8968 12.1096 17.7241
1 41.3515 31.3069 30.3355
1 35.1486 38.2337 19.9479
1 4.72435 16.0446 46.5084
1 9.3846 2.53047 3.94128
1 35.6555 9.68753 3.37098
1 1.52938 17.9252 35.6461
1 7.38209 7.46359 19.5971
1 32.493 11.7275 30.6629
1 26.3374 46.5039 9.73915
1 32.3716 12.5246 26.7533
1 42.8755 20.7779 0.512611
1 21.7433 16.3328 4.0211
1 33.5798 21.5213 27.4993
1 24.5438 46.5791 22.7229
1 6.53427 43.4415 28.6521
1 45.2597 42.5312 36.8523
1 25.2816 1.07641 26.7343
1 26.6022 19.3289 32.219
1 11.7046 13.0314 29.3506
1 9.45493 47.7952 46.3838
1 1.61391 11.1495 47.2691
1 18.4657 23.9086 6.30924
1 32.2972 32.39 25.4995
1 38.5022 37.9215 34.5816
1 4.95729 3.67793 3.33963
1 25.9927 18.9476 43.535
1 2.24294 17.9641 26.963
1 46.9252 47.2402 36.9121
1 42.8697 28.8667 36.8207
1 12.5991 43.8221 20.921
1 36.4654 3.69736 44.8417
1 2.25763 23.934 22.7895
1 40.7913 17.53 27.94
1 23.1929 11.8014 47.6231
1 14.633 49.7821 22.3887
1 2.53215 42.8356 5.50934
1 0.817671 22.9647 8.78931
1 39.3472 18.3968 42.2553
1 16.6824 38.4718 10.2506
1 40.6271 31.8121 6.41608
1 7.79003 14.1364 27.8792
1 13.7515 7.75931 24.9654
1 39.0786 19.2565 3.64659
1 0.0551536 0.978276 8.02855
1 18.4764 31.7783 29.7437
1 6.46847 3.2402 25.2227
1 24.8952 16.514 35.3704
1 14.1384 36.3594 34.9857
1 38.8808 37.4571 38.3589
1 11.7706 49.3089 38.6193
1 28.4477 23.0498 17.9463
1 12.713 27.2073 24.6105
1 15.6941 26.5919 2.82373
1 1.86715 16.8518 32.0347
1 7.65264 28.9101 22.111
1 10.8151 8.21061 25.1386
1 12.3578 49.1494 28.9942
1 27.5722 36.3144 5.33198
1 36.9102 31.5908 41.9585
1 19.2262 22.4209 37.1493
1 31.007 3.28707 6.47006
1 16.0339 13.3529 36.7347
1 23.6038 7.88386 25.1848
1 4.24058 20.751 49.0902
1 11.9382 19.8296 47.5817
1 27.638 26.9629 34.2727
1 7.39907 10.9914 19.2853
1 48.3044 27.8217 22.3696
1 37.3641 17.3089 40.7362
1 3.71568 47.6763 0.0189485
1 17.2984 12.1572 19.4278
1 27.4517 28.1502 30.0959
1 33.1357 10.6644 4.41294
1 48.7639 16.2545 48.6413
1 48.4728 32.0789 48.477
1 48.5428 6.32672 7.29007
1 10.801 33.864 17.8395
1 38.6893 25.3405 17.8627
1 6.88536 6.83122 10.6376
1 7.73627 15.9378 39.1178
1 16.9982 6.63229 49.3432
1 46.712 40.2756 12.5155
1 36.984 39.8681 9.75104
1 44.3324 26.891 48.1418
1 16.7391 20.7004 37.9908
1 43.9958 5.6379 12.2292
1 49.5644 8.63706 42.1833
1 12.7614 3.92416 23.3326
1 28.717 11.9114 41.2692
1 4.35232 1.71833 19.222
1 47.0139 26.578 26.0172
1 14.2154 5.25641 7.53906
1 20.614 22.4065 26.3835
1 10.8163 38.3721 18.4711
1 36.9123 14.2419 13.958
1 42.331 40.5055 26.3496
1 4.9334 9.61416 32.073
1 1.97695 15.1898 46.5316
1 20.1081 20.146 35.165
1 45.6501 32.6304 2.81414
1 1.83105 39.5858 44.693
1 42.7339 9.85993 45.6993
1 12.0227 13.8416 44.4642
1 17.4266 42.4823 16.6694
1 15.2075 3.6911 10.6656
1 18.0029 32.2669 26.6642
1 6.91226 11.9575 9.20812
1 21.7137 8.42314 28.3466
1 43.7795 17.1753 18.8389
1 5.75927 16.1264 29.7988
1 40.9473 21.7177 37.4078
1 14.318 44.2056 25.0429
1 0.549395 34.7504 7.61768
1 14.5337 2.37099 7.22995
1 6.754 8.65426 43.6512
1 9.13648 42.6984 18.4034
1 2.92294 28.3864 45.9262
1 39.9673 23.348 2.51906
1 12.8987 8.31419 8.93338
1 9.46724 0.807725 1.43144
1 26.233 34.3302 40.7619
1 13.4134 14.6641 32.8277
1 32.1775 1.56099 35.4052
1 3.28838 24.2852 10.1212
1 12.9216 20.3926 14.8531
1 48.024 15.5412 6.60463
1 27.8507 44.112 34.5792
1 15.4195 5.82418 1.50966
1 8.40894 37.5927 3.00855
1 46.1612 9.6279 8.69938
1 42.9982 7.4794 13.9559
1 28.4008 30.1338 2.03479
1 29.6919 41.6064 8.4728
1 7.48342 36.8091 35.2379
1 31.2688 24.7669 26.8347
1 10.2814 17.6219 34.6389
1 46.4479 4.24515 11.7986
1 9.73636 23.0647 17.6788
1 4.7875 35.3496 14.8006
1 23.8104 19.3872 24.7938
1 5.8359 18.0809 44.8935
1 44.2333 2.67828 5.92577
1 3.96999 47.521 26.3853
1 38.4141 9.65614 0.60798
1 13.8149 4.89513 29.6688
1 11.5962 14.6496 25.2487
1 2.52597 47.7728 9.99351
1 15.4582 3.56567 35.6924
1 18.9156 21.2628 7.87825
1 31.8163 27.8974 32.0605
1 9.82537 0.508777 12.7617
1 35.1439 10.4601 38.4003
1 11.5052 4.81954 31.0297
1 47.6451 42.6171 15.6675
1 48.6053 33.3458 46.2114
1 16.3127 48.0173 24.579
1 47.9688 24.2615 24.8859
1 26.4178 3.72678 7.75594
1 14.068 30.2377 43.1103
1 24.2893 5.46566 5.3181
1 17.3737 44.5853 42.7365
1 40.7544 14.7034 9.72121
1 20.8398 36.8303 9.4092
1 17.6524 3.59886 32.3799
1 8.27454 23.1454 42.652
1 11.8348 41.5227 30.3608
1 12.6637 46.4949 39.0892
1 20.7488 0.697574 9.93646
1 5.31299 4.19994 40.4515
1 7.21945 41.9705 25.5088
1 0.69211 28.3624 41.6271
1 5.39425 5.03746 45.1922
1 40.5198 29.6242 17.1193
1 23.2921 18.8921 4.52821
1 43.9399 7.02302 42.6204
1 39.7326 48.9984 11.0031
1 42.1209 3.76642 16.4663
1 11.2017 2.48852 39.2748
1 47.9758 41.5252 19.2113
1 38.2493 17.1601 48.807
1 8.94481 29.8626 19.9957
1 39.1836 5.36923 43.2535
1 0.13033 35.7374 31.7936
1 14.136 18.2354 11.0716
1 42.5945 20.0369 25.2755
1 37.8988 35.2894 36.9501
1 6.88858 31.2423 16.7477
1 19.8847 27.1088 5.40062
1 20.6416 29.8398 39.6167
1 8.83725 6.3095 17.6837
1 0.902915 9.5796 9.45915
1 25.4431 46.3731 0.801626
1 15.3329 36.953 3.21607
1 17.6757 42.3344 33.0121
1 12.2929 7.11255 38.5481
1 29.1787 44.5493 16.2298
1 23.1847 18.7207 1.7353
1 40.5609 17.2366 13.6754
1 8.49291 13.0561 35.1923
1 48.1324 26.0237 12.0758
1 23.4361 12.8146 37.8052
1 7.53301 42.0289 3.00073
1 4.36058 49.1083 31.7229
1 9.58208 3.11998 12.8118
1 24.4337 7.51865 13.1072
1 49.6665 0.907509 12.3959
1 29.4361 47.3775 43.8155
1 10.2507 41.2073 7.27526
1 14.786 4.41381 32.8621
1 6.29101 20.6089 21.3212
1 1.27195 40.7632 14.9223
1 14.3144 23.8982 18.7987
1 45.6929 41.0016 23.9603
1 21.138 42.5064 26.4669
1 42.7355 24.2759 23.1674
1 39.7654 5.90218 47.3741
1 45.6648 29.8303 4.59406
1 6.42737 37.8084 32.9885
1 13.6894 34.5855 46.0285
1 6.2508 12.3978 41.9938
1 17.2162 11.4678 3.13152
1 26.7186 6.04087 9.46596
1 36.2542 48.0409 23.3266
1 19.9336 19.3146 9.34482
1 8.08333 21.7171 46.928
1 39.9017 7.46473 17.259
1 47.5296 49.5333 3.3357
1 6.05456 15.8481 20.6509
1 5.4092 42.3036 23.7436
1 36.2933 49.3609 40.1218
1 42.5818 36.9993 31.6846
1 46.319 40.846 21.3
1 2.65455 39.6214 21.2822
1 19.1939 17.2893 4.98852
1 4.59267 19.1723 18.1424
1 11.162 1.67106 34.9482
1 41.1688 11.2559 32.6233
1 3.3089 18.0949 49.2797
1 1.11736 34.3361 14.1657
1 9.63442 32.3265 42.2668
1 38.4272 28.7188 21.6523
1 6.81704 37.4072 15.2643
1 14.8358 17.1371 43.4606
1 48.1619 28.754 9.7912
1 20.0165 19.441 12.2791
1 19.475 20.0668 5.2586
1 33.899 31.3847 0.905876
1 16.958 11.2269 37.9717
1 15.9101 23.9149 45.3846
1 19.5546 23.1558 43.0357
1 25.4438 0.0425853 17.027
1 38.8447 29.4356 11.1872
1 32.4255 23.8289 36.5492
1 14.1039 34.2537 11.7535
1 7.45721 44.15 43.0336
1 42.746 4.82684 23.0066
1 4.09914 7.75959 36.8579
1 43.7733 14.5142 37.9277
1 16.9689 4.12939 45.9057
1 7.86864 37.9624 11.4822
1 6.7003 47.4163 10.351
1 10.6583 44.9473 19.2978
1 2.96324 34.8148 16.5201
1 36.7461 7.02678 28.9767
1 5.14584 31.3521 49.5031
1 5.74892 4.25964 47.9705
1 6.49818 45.708 34.7815
1 24.2862 21.9222 37.7251
1 32.883 1.69019 15.6125
1 4.65095 15.0399 5.73333
1 45.8414 6.46402 29.6945
1 31.6806 13.7877 29.1529
1 13.9476 20.8239 4.40216
1 8.78606 45.4223 23.0563
1 8.68944 34.7361 5.59085
1 20.0363 10.6924 10.095
1 35.6259 8.22746 42.127
1 42.9296 7.11019 35.5921
1 45.067 43.7154 41.7271
1 39.3116 17.3516 9.96687
1 24.1046 7.16012 43.7842
1 26.5829 22.2296 40.7188
1 9.57261 11.1831 33.7061
1 31.7291 45.7849 18.9101
1 26.8316 46.7394 28.6437
1 13.1712 7.3954 0.566341
1 41.2619 37.2772 9.11228
1 44.9733 34.3295 19.1238
1 17.7499 36.6939 6.72851
1 39.4879 9.87933 34.3763
1 31.0145 16.5734 7.88289
1 0.870692 17.894 10.2317
1 17.0357 28.8804 0.6385
1 33.6205 28.3339 10.6699
1 14.855 32.0739 19.4033
1 8.04005 45.9546 6.89864
1 24.6489 29.2968 46.0825
1 19.2841 27.2191 45.5789
1 41.7524 14.8556 5.12254
1 2.17141 15.162 9.0354
1 3.9652 4.2997 5.87043
1 5.12768 44.4592 40.7737
1 41.8842 36.9097 13.352
1 44.2157 36.6945 7.94752
1 10.2352 40.2072 14.5107
1 37.8239 21.6535 22.873
1 40.4427 45.2717 35.4086
1 32.3838 28.6325 44.3957
1 21.5398 24.4604 24.668
1 28.3852 26.1954 14.683
1 3.99327 38.9301 2.24541
1 20.0596 15.9661 40.0287
1 16.3894 47.0607 40.0619
1 19.285 30.3974 6.96009
1 2.12115 35.4355 0.315468
1 20.5416 13.4018 40.3213
1 12.0103 48.1237 6.45909
1 39.6562 15.7313 39.5429
1 48.9029 33.1391 5.7959
1 49.7287 46.4294 6.09273
1 27.0272 16.463 39.0226
1 15.4924 7.63229 39.0982
1 28.2722 15.3064 20.1072
1 21.5246 41.4468 11.6941
1 48.2851 21.2086 30.4878
1 7.51415 30.4214 24.023
1 30.0586 38.6143 36.001
1 15.0461 9.7884 12.8512
1 4.50547 26.0124 11.9191
1 38.6629 35.6689 5.95207
1 20.0781 4.65581 14.0263
1 13.9399 32.9333 14.0574
1 21.7444 34.3516 10.4366
1 19.9181 29.9024 35.2497
1 22.4396 4.00533 15.0728
1 31.1174 5.94179 24.6652
1 15.1774 3.22477 24.8719
1 12.0758 26.4154 27.2465
1 44.2748 24.5941 41.6504
1 47.3051 7.73553 36.0499
1 12.4846 42.235 23.2836
1 48.6107 25.6162 32.4019
1 9.69432 16.9838 12.6021
1 40.9551 35.6374 2.28061
1 11.8248 31.2702 5.74038
1 27.7019 33.3061 16.5453
1 0.258851 39.5607 3.06658
1 29.5942 42.1649 18.405
1 16.8562 35.3425 32.1404
1 12.5359 1.55884 21.575
1 3.14739 35.8806 41.115
1 25.9788 32.9059 45.1609
1 23.1405 37.5265 22.8534
1 36.8279 20.7712 10.4278
1 45.8139 15.7723 35.9866
1 17.3172 39.3059 28.7645
1 1.91203 0.527588 14.6822
1 19.2354 4.74176 39.7362
1 14.9142 23.5166 33.2347
1 49.2634 20.8002 44.0917
1 38.6618 11.4656 43.065
1 43.2266 43.1929 27.0644
1 36.1237 28.3221 44.7415
1 9.00044 5.3059 29.2706
1 16.2783 45.7242 19.7625
1 27.6535 32.6413 46.9196
1 47.2519 10.6843 3.85072
1 3.75669 10.3594 2.87059
1 25.8693 49.0544 7.43003
1 40.0343 35.4191 14.7677
1 34.7971 8.96875 8.0328
1 46.7247 32.6086 34.44
1 1.5026 0.42363 10.0161
1 3.41686 36.2029 12.5804
1 32.9159 5.3222 47.346
1 3.58499 25.8977 41.9597
1 31.0632 45.0517 43.6341
1 3.50483 11.8535 42.2459
1 35.4361 16.3654 34.2858
1 3.50308 11.4155 45.4298
1 6.56679 34.9503 43.0145
1 9.56408 28.4384 0.180451
1 10.3404 47.6752 4.27397
1 41.152 19.2217 48.4409
1 28.9839 43.3514 40.3134
1 15.8988 41.9224 29.7705
1 4.05064 34.3529 34.8307
1 36.0766 1.62827 20.7269
1 12.0601 15.1474 16.2236
1 1.15336 37.2724 4.02033
1 15.2807 14.6708 47.1068
1 1.09676 22.6459 18.544
1 26.111 18.2686 8.00798
1 49.5758 11.7241 36.6346
1 49.4501 28.5385 26.018
1 24.0559 29.8347 28.1683
1 28.3917 37.0768 37.7836
1 43.0368 42.2708 45.9217
1 11.3819 4.34627 14.6729
1 9.29407 17.6346 44.7679
1 10.2932 40.8167 9.91602
1 44.3417 6.34306 24.9993
1 9.12 20.6593 21.1374
1 2.93087 14.8683 38.9814
1 21.3122 8.28988 9.7212
1 11.4316 33.4552 44.8574
1 32.6429 6.52713 41.8753
1 7.87748 29.4955 11.173
1 22.2712 45.0082 36.2426
1 46.1992 10.7136 20.6112
1 7.93531 36.2904 29.4317
1 8.36957 29.4668 15.6094
1 7.65556 24.2835 2.10959
1 1.76039 47.7468 4.65301
1 30.9328 40.8229 2.00776
1 5.32882 44.8328 11.1016
1 47.6948 23.1195 16.2676
1 18.3589 26.12 20.239
1 39.9521 41.8399 27.5736
1 42.9667 12.6627 10.6491
1 47.7889 40.423 25.4719
1 18.2791 25.0366 36.2855
1 13.9114 38.8198 9.10038
1 19.8411 34.0873 21.1044
1 46.6023 25.0537 0.562279
1 8.89776 16.9249 24.469
1 9.442 31.8802 14.1915
1 23.8414 41.7787 48.4738
1 10.8235 43.7545 31.8786
1 40.7253 41.0459 2.80193
1 27.0881 23.9865 29.3821
1 34.6355 38.5542 24.0111
1 1.74372 47.2199 39.1147
1 34.1976 44.2365 8.59722
1 9.42838 12.554 39.9413
1 44.9323 33.4298 48.337
1 18.7189 28.7715 21.7549
1 33.0866 19.4373 12.48
1 35.3697 46.7561 44.831
1 6.3663 22.3343 39.5072
1 10.2658 46.7309 34.0786
1 35.1946 26.2063 24.274
1 37.5055 19.3816 0.896183
1 44.5336 38.5329 21.1633
1 31.7231 19.462 16.8116
1 28.155 7.78827 31.28
1 44.8308 8.42342 34.2954
1 14.4812 41.678 8.39857
1 29.6515 10.5671 35.0892
1 1.55877 8.72772 6.0447
1 16.3187 41.3316 22.5807
1 43.4111 1.56478 29.9523
1 14.1759 37.8227 39.5502
1 38.9661 5.15044 9.33954
1 34.0954 32.0683 42.091
1 35.0872 32.2242 46.4379
1 15.4041 35.6502 5.7335
1 3.61001 19.3895 21.9533
1 6.20369 26.6383 19.2263
1 33.5187 16.3603 12.6674
1 16.2448 44.9579 46.4714
1 34.8244 17.2416 45.4139
1 5.50841 33.5519 25.4168
1 7.69879 31.1649 0.33661
1 33.1834 1.49154 20.2335
1 13.2434 12.2975 3.46669
1 15.9773 4.21259 19.841
1 48.8106 24.3852 2.16938
1 30.3085 33.7998 19.9486
1 47.2279 22.6966 26.6692
1 22.9119 27.3489 15.7143
1 37.4533 28.0763 9.00979
1 21.2851 42.2875 5.22249
1 13.2822 45.3611 5.37191
1 26.6647 4.28611 5.03285
1 30.497 41.119 49.0713
1 41.7726 43.883 19.1481
1 28.6499 7.99459 45.2284
1 26.3251 10.4059 11.368
1 43.2368 39.5984 7.60704
1 9.56357 37.2292 9.25154
1 10.0311 48.626 27.4135
1 8.60375 41.8173 31.954
1 2.75861 24.899 4.5745
1 4.9112 3.34316 22.7148
1 7.78482 38.1986 41.4591
1 9.72749 42.9703 23.7376
1 49.7723 44.9125 20.5354
1 38.5463 29.4193 45.5687
1 16.3681 28.6623 13.3822
1 28.7003 15.2397 3.00544
1 49.3856 14.5505 22.2574
1 36.1582 14.2318 29.2556
1 38.4371 39.0628 13.6704
1 5.51357 43.6252 48.5708
1 39.2777 46.453 43.3056
1 5.56943 27.13 16.1947
1 48.261 6.87724 32.4291
1 4.10684 1.64268 6.89519
1 14.6521 20.4407 7.19607
1 37.2604 1.02359 16.5036
1 20.6982 32.4898 26.9785
1 44.1472 20.8755 16.806
1 48.3859 36.3524 34.0256
1 2.04845 40.5117 11.3393
1 40.3334 14.7492 35.608
1 0.096223 6.21184 49.0227
1 5.49473 7.40861 15.1473
1 11.0991 30.8375 37.2508
1 28.6993 47.3136 12.4289
1 36.2605 11.5875 16.0847
1 12.6581 19.9225 8.95831
1 46.2906 33.9957 5.53609
1 49.5238 37.3169 20.715
1 13.8575 28.4306 0.63632
1 45.2058 43.2151 21.0479
1 23.8052 23.9049 25.714
1 49.7725 42.4639 26.1331
1 7.2254 20.409 34.5245
1 26.3065 32.1361 14.227
1 19.766 43.5107 7.87371
1 42.0905 47.2123 49.4866
1 43.4267 32.6323 23.7838
1 6.48574 0.896982 15.2287
1 34.7293 8.29034 14.9171
1 18.9724 23.6002 3.4896
1 48.5778 20.7367 21.943
1 20.6009 11.3495 33.5059
1 19.3137 36.1033 31.002
1 24.1379 35.1117 17.4415
1 34.7298 3.97861 9.11709
1 34.4292 21.1129 20.509
1 8.43616 4.91015 5.47539
1 23.8482 32.2847 16.2122
1 36.0142 38.0505 49.0684
1 49.4038 49.529 31.0685
1 5.96018 24.04 12.7557
1 3.37997 12.2204 31.8767
1 8.17813 35.6149 0.929157
1 34.726 15.1191 19.5322
1 23.5378 11.8398 23.2725
1 3.62149 4.68694 14.5869
1 33.7408 48.1198 1.62064
1 33.5136 28.9732 39.9638
1 3.25842 43.5496 28.4155
1 15.8975 3.6563 39.454
1 20.5807 37.5591 16.6386
1 1.41973 22.8339 27.5183
1 38.322 8.63638 3.2948
1 13.9305 7.3335 32.433
1 34.737 28.369 1.06649
1 13.4646 1.33057 28.0394
1 26.0021 44.9371 11.7419
1 5.12088 6.03444 49.6829
1 26.242 6.73745 21.9636
1 7.24761 49.3025 28.4461
1 44.8053 5.88375 40.08
1 24.4995 17.462 26.6431
1 30.8618 25.8632 22.7611
1 37.0948 11.6437 28.2933
1 5.68492 9.29709 11.1906
1 20.8067 30.0128 25.5918
1 40.2728 8.53645 46.2947
1 42.3445 15.5196 7.8464
1 7.81046 14.6807 8.18891
1 26.3217 33.2105 36.1326
1 6.57958 44.7419 46.3305
1 18.7302 46.1719 49.4951
1 46.213 31.863 28.7851
1 40.0412 15.0595 21.4804
1 23.176 35.4789 48.4438
1 27.2951 43.5054 3.80235
1 45.1334 34.9269 10.4984
1 18.2522 15.6273 11.0882
1 43.2512 29.437 1.18584
1 32.2527 7.80948 4.18953
1 49.6139 36.8719 6.37374
1 38.4464 39.1508 32.2643
1 19.3091 38.5655 20.4969
1 5.01286 39.6847 22.7571
1 29.635 47.0553 24.3709
1 49.3854 22.0646 3.97795
1 3.34192 22.8204 0.820223
1 0.590151 6.9104 45.6588
1 3.03695 33.7022 11.0994
1 31.5369 48.7801 3.58943
1 33.0756 39.3145 27.9755
1 47.3614 35.9446 37.8841
1 20.9068 49.6629 4.88911
1 26.4286 42.382 43.0709
1 43.3444 5.68314 20.1945
1 3.40158 34.5542 21.9545
1 12.9045 34.2306 22.4975
1 17.7401 48.675 49.4071
1 0.570338 7.14976 30.7114
1 34.0809 39.4928 33.2952
1 22.7525 32.8551 38.4752
1 4.03889 22.338 13.8667
1 18.689 6.61916 21.8133
1 22.2113 10.3919 41.1691
1 34.7674 43.7424 24.7638
1 18.63 35.9502 12.0735
1 43.9482 42.608 10.3228
1 44.9828 21.7813 14.0684
1 15.062 33.1166 21.7901
1 27.9418 40.4832 4.42699
1 47.0591 24.0717 36.9471
1 22.4341 39.3037 35.0292
1 21.8485 34.684 42.6708
1 39.0091 27.5357 27.8116
1 12.9696 46.7945 43.1769
1 15.4634 10.1968 26.2693
1 9.96675 25.2747 12.0012
1 22.6423 1.45323 0.923637
1 6.66023 0.555342 6.92956
1 46.0752 47.2941 14.0943
1 43.5764 11.6769 7.78611
1 15.2668 2.47615 14.9528
1 39.1735 32.4903 37.4541
1 4.42403 16.8784 22.4631
1 18.7575 7.59985 25.8741
1 49.5038 30.3141 40.0519
1 1.21317 8.63693 23.5811
1 15.1541 15.4551 19.7468
1 9.82312 23.9163 30.1732
1 11.025 10.8114 12.5708
1 7.7901 39.0635 37.1088
1 18.3856 36.1047 20.333
1 19.9443 46.3065 37.0224
1 30.6221 5.57947 14.857
1 10.3121 25.9572 17.9687
1 23.5148 38.884 2.18646
1 19.6237 30.7832 23.1651
1 22.3951 35.6238 21.1659
1 14.3087 13.2812 25.4302
1 6.96614 38.4173 19.8265
1 44.4412 21.2358 8.80967
1 6.03935 29.1398 30.9551
1 37.3862 5.98343 46.6853
1 8.03431 42.575 45.2563
1 12.9085 5.90472 10.3435
1 38.0405 31.2737 26.1701
1 6.74269 47.6781 38.4032
1 24.3318 48.2139 10.114
1 27.4682 20.6512 4.60569
1 37.449 20.691 45.8659
1 29.4106 29.7752 10.3229
1 11.329 33.1775 3.3481
1 19.8286 17.5066 31.5922
1 25.6454 12.7799 48.1669
1 48.5405 31.2553 32.8555
1 8.12975 1.77019 23.8904
1 49.3592 11.5714 16.6989
1 10.0796 40.2992 46.4727
1 7.30149 21.7238 37.1197
1 28.0243 13.1708 16.043
1 48.6678 1.52689 46.069
1 8.81508 33.2806 1.85046
1 22.6243 20.1529 20.7525
1 15.1084 39.6737 31.4086
1 13.9551 0.39046 25.2272
1 37.9639 13.2166 22.251
1 2.27665 24.3368 32.0287
1 8.89927 6.58976 46.3404
1 14.3891 24.4454 4.27018
1 19.6369 43.4789 18.7833
1 40.5392 43.5096 29.2591
1 45.3088 0.513122 17.0106
1 21.2468 31.1498 43.5392
1 2.20242 28.5481 11.3087
1 2.2799 13.865 35.8394
1 9.08916 30.8806 47.6128
1 48.0456 26.879 47.8757
1 44.4974 34.3652 34.1122
1 6.08802 41.0027 19.1605
1 43.0779 39.267 28.3785
1 35.3615 40.9734 29.5455
1 13.4305 31.3653 33.9117
1 30.7296 14.1537 19.4023
1 29.2983 45.2097 2.97564
1 32.5654 8.89906 30.1615
1 29.5471 30.7902 4.78392
1 23.3862 44.1747 11.7942
1 33.4303 46.2502 21.1395
1 20.8592 45.1695 22.6493
1 23.7117 27.3665 12.4166
1 49.1221 0.91491 24.9063
1 34.3796 0.0311767 31.9424
1 39.8621 15.8297 31.7673
1 26.8553 14.0068 40.8919
1 44.6143 9.24964 22.4663
1 4.42475 2.03502 47.9437
1 14.5408 17.4982 29.5401
1 5.28576 7.82384 3.72181
1 40.1605 46.3717 28.1938
1 43.2584 26.3905 33.3464
1 44.3099 20.8239 21.204
1 20.8814 46.1211 32.431
1 4.69796 6.84788 22.5071
1 1.71343 21.212 7.20296
1 1.7271 0.197455 21.5746
1 39.0403 40.9938 40.4592
1 48.5762 33.2755 28.9575
1 21.5942 16.639 29.4054
1 2.65336 1.28047 35.8786
1 32.8409 28.2385 48.5272
1 36.8698 19.1486 23.072
1 11.1456 38.8872 29.7533
1 8.4708 13.099 17.4638
1 17.6758 13.0744 7.54202
1 17.8071 20 44.8909
1 8.45734 38.9635 28.8776
1 25.7746 29.5134 39.7267
1 13.4453 34.7902 41.5842
1 42.2692 48.0936 28.0972
1 41.2068 45.1962 22.6309
1 0.689716 11.9324 10.6331
1 16.0743 11.2587 49.7977
1 20.469 48.9134 39.7336
1 19.6553 7.36414 7.62137
1 40.6377 26.3606 30.0545
1 11.5042 30.472 46.794
1 39.225 48.4967 16.9715
1 39.1872 16.3154 44.3736
1 9.10159 48.6816 31.9421
1 3.13843 36.7476 28.8335
1 6.09528 42.2152 14.6304
1 11.2328 30.3542 21.1492
1 28.9603 0.092089 47.0542
1 39.1746 1.83287 3.86617
1 16.9335 38.2438 13.1202
1 31.1904 28.4111 14.4647
1 32.1608 35.268 21.2525
1 24.1569 14.0356 32.8077
1 16.2875 15.6042 38.0631
1 47.8486 12.4265 2.19581
1 29.5188 21.5926 43.3962
1 4.85004 42.5211 33.3919
1 21.7976 15.9079 48.3624
1 37.5624 38.9182 44.0059
1 6.28212 18.1984 42.1994
1 2.78251 41.127 1.16585
1 48.5105 17.7812 1.03526
1 8.67258 34.4287 35.5434
1 24.2149 0.389424 33.6767
1 6.49569 43.0478 35.6387
1 11.8512 22.4676 9.62297
1 39.3498 46.0755 38.0346
1 28.0541 4.24137 38.7943
1 32.6607 9.18053 10.0964
1 13.732 45.5957 30.771
1 19.3133 42.8106 10.5878
1 19.8983 32.8811 15.6979
1 11.3885 31.8272 23.3235
1 38.3405 44.4203 31.1174
1 39.6357 14.7904 48.5154
1 12.9066 10.0237 44.5798
1 40.363 13.1915 45.6978
1 4.03103 30.0845 32.192