4096
 Atoms. Timestep: 80
1 4.65414 30.4358 17.0826
1 28.1784 17.264 11.4554
1 36.2978 1.42403 29.7474
1 24.21 41.2468 10.671
1 47.8599 12.7911 23.5744
1 15.8461 47.7559 37.732
1 27.0886 37.9667 5.8228
1 34.5934 42.7153 16.0401
1 2.23883 46.5886 38.4257
1 40.0744 0.769557 25.5302
1 27.3193 14.1952 3.03815
1 40.2885 46.4931 33.9989
1 12.9692 1.08141 6.26593
1 3.1788 17.9477 26.4921
1 33.0791 28.3327 6.75566
1 24.7052 5.36165 16.5122
1 37.1512 6.18191 41.2217
1 3.925 23.7789 5.05466
1 14.8344 11.3003 17.7076
1 8.9334 24.0674 7.31801
1 40.7584 10.2559 7.84391
1 13.779 27.3374 13.5386
1 4.08359 35.3064 39.7159
1 47.4453 18.1835 22.4131
1 14.412 10.813 42.6356
1 49.4172 33.429 16.0954
1 5.03367 8.8618 17.4208
1 13.0882 14.6772 21.2065
1 9.76758 12.5931 30.8878
1 3.30569 45.8256 46.2675
1 32.3847 41.468 42.8307
1 7.22409 4.10099 13.6785
1 35.7399 1.23447 8.59048
1 6.47131 26.0256 14.569
1 27.4625 46.7569 43.7749
1 9.15973 42.6804 21.3362
1 11.9433 15.6413 5.44444
1 21.507 29.5237 39.4639
1 2.62058 32.4954 8.65863
1 38.9796 11.853 16.7135
1 29.396 36.9065 29.4841
1 36.3797 29.1224 20.2679
1 3.96005 39.1856 13.7922
1 37.0569 37.1525 45.9246
1 4.20015 5.42725 13.5398
1 14.4359 28.1628 37.0144
1 38.9777 25.8189 28.178
1 5.43926 31.5278 12.0977
1 5.10945 0.192959 24.4686
1 15.1964 36.0076 10.749
1 11.5182 5.59566 23.3314
1 31.4106 12.0403 46.9212
1 12.5882 15.5827 35.193
1 9.79799 25.7702 42.5508
1 37.4762 20.2364 3.98448
1 33.6132 27.0947 31.0927
1 28.4957 18.0601 14.1749
1 45.606 47.8748 37.4762
1 32.9845 2.97942 49.002
1 19.2518 23.1472 8.09754
1 33.4856 30.6525 34.2458
1 9.67076 42.9746 36.7336
1 47.3137 43.2632 2.34199
1 9.47049 15.0786 44.6393
1 42.7962 48.6257 6.0833
1 5.70363 1.86597 18.9485
1 39.7446 8.37943 45.0635
1 41.5471 7.72768 17.5944
1 21.7805 18.8018 40.8287
1 41.9846 20.3094 6.19364
1 26.278 4.08877 31.0356
1 28.5454 24.3101 26.9192
1 16.5044 4.67886 26.693
1 31.5839 34.8732 4.35405
1 27.6328 1.30233 23.8552
1 12.4032 2.04791 30.5807
1 42.2836 29.6567 6.38797
1 16.728 35.5482 24.6918
1 28.2539 22.916 17.4901
1 1.49828 25.5024 5.44185
1 37.7513 6.56517 45.4076
1 31.5703 5.19119 31.8346
1 14.6592 6.78727 9.11902
1 0.866248 47.2137 14.58
1 28.74 15.4074 14.8813
1 22.9232 47.5981 40.5443
1 19.4698 43.9025 13.2283
1 9.26127 37.114 3.05205
1 2.08742 17.5083 12.255
1 41.1862 41.9409 34.0674
1 23.8883 3.89548 29.4357
1 7.91908 36.1473 11.9635
1 38.2408 3.38456 0.0340876
1 31.8197 2.51125 18.8874
1 15.6264 11.5171 26.5343
1 46.8737 13.2435 16.4856
1 19.3212 2.6712 34.7884
1 15.9316 46.7307 46.8382
1 20.5339 4.4839 0.611418
1 8.35062 36.1967 41.271
1 32.6815 21.4281 31.4625
1 22.4257 16.8621 0.121823
1 21.6667 25.7481 5.5838
1 18.2082 34.0317 19.3592
1 6.05682 2.37861 16.0541
1 40.079 33.5386 22.9201
1 46.2564 16.2506 7.7731
1 8.56431 5.98332 4.72943
1 35.8737 9.3481 43.3587
1 9.70774 44.0714 45.2067
1 35.2269 39.9466 21.4077
1 17.874 43.7092 19.2484
1 30.6564 30.0826 29.5737
1 2.45612 35.6278 43.3421
1 28.9829 23.8461 9.91591
1 27.587 22.7332 7.75546
1 24.4143 24.2356 38.6122
1 41.6615 1.99313 33.5065
1 47.2814 25.2428 29.5183
1 20.5587 48.8866 14.3989
1 14.2187 24.8604 1.56003
1 37.5008 9.61476 16.4469
1 43.1214 13.4544 38.2046
1 20.0402 35.874 2.29285
1 14.8159 2.19365 32.0115
1 43.8151 22.0609 22.2321
1 35.3656 36.1766 31.9265
1 0.176695 17.4916 10.1526
1 30.0692 2.99011 40.7913
1 40.2926 9.26538 2.60698
1 13.3743 38.2668 21.4595
1 36.6839 25.6121 26.4356
1 18.2439 5.13636 2.24499
1 17.9957 37.0235 10.1888
1 4.16081 9.24832 31.9526
1 45.9903 37.1118 9.98077
1 4.97528 19.1522 6.07069
1 19.8852 40.6876 22.8674
1 39.9682 5.8306 35.2133
1 0.225683 35.1457 17.963
1 23.1098 13.2233 40.8071
1 31.0669 32.8172 28.6333
1 18.9339 11.9276 48.4548
1 30.3646 49.61 11.087
1 48.3313 30.1192 21.7257
1 1.10027 42.4024 18.1596
1 3.7018 12.4503 5.54751
1 40.9634 45.0374 43.5475
1 15.1148 18.9181 45.8665
1 45.1073 27.1152 7.89838
1 14.2185 21.3979 1.04813
1 37.2661 48.2001 18.7239
1 13.6532 22.0006 26.0228
1 3.78827 45.9359 29.953
1 4.94106 26.7355 18.5458
1 46.5286 0.568615 12.787
1 37.1292 8.26745 34.0768
1 20.1944 6.83068 21.6766
1 35.2046 48.2901 4.37813
1 38.7803 14.4278 1.19315
1 32.6856 0.455973 44.841
1 16.1115 4.48334 6.80935
1 46.7742 14.807 34.365
1 30.7094 15.4419 8.32887
1 36.5846 4.96687 10.3182
1 46.9897 0.969631 10.0265
1 32.4947 14.4084 14.1553
1 40.6722 30.946 23.8716
1 33.8988 39.5044 9.89439
1 22.0181 12.5111 48.215
1 34.0583 7.5586 23.0882
1 33.4776 31.448 41.9215
1 11.0354 8.34024 25.0288
1 28.7448 26.5817 41.688
1 31.8556 36.2628 15.2709
1 22.6055 40.2088 0.897713
1 8.64647 8.05899 3.09802
1 26.5711 48.8891 29.9679
1 18.3216 29.7717 31.0037
1 10.3724 33.7187 38.7207
1 47.3088 22.7509 24.2758
1 12.2768 6.67175 4.48214
1 32.7588 39.5287 30.5457
1 11.993 24.8629 48.3993
1 14.4097 2.11822 38.852
1 31.4844 21.0935 34.0478
1 23.7893 10.103 34.3174
1 7.21383 30.5958 16.8805
1 30.5125 45.7589 37.3752
1 9.03677 1.71769 6.82893
1 49.3767 34.2607 38.4334
1 15.9609 32.9001 37.6066
1 32.7963 27.4346 43.1558
1 8.77189 45.3065 0.864915
1 47.8638 7.75757 20.2062
1 26.871 1.89545 42.8376
1 46.0726 4.64208 9.8906
1 34.7001 25.7066 16.0086
1 33.7762 20.6958 27.4593
1 1.74803 18.0899 23.8434
1 21.3977 14.1629 22.4466
1 15.9402 13.0673 4.7083
1 6.67267 15.7105 15.2338
1 48.7823 10.0608 18.8358
1 43.3933 9.06016 46.7651
1 13.2314 44.4606 15.0962
1 18.7912 16.4482 7.27813
1 41.6856 35.8355 9.71052
1 24.4493 1.13179 11.8099
1 25.6891 26.4522 25.2681
1 39.9206 43.9385 26.6524
1 39.0988 45.9788 22.1321
1 37.7431 20.2891 39.7898
1 5.43575 43.2475 48.9524
1 18.645 37.1035 14.2329
1 0.4936 6.85938 21.5254
1 12.451 32.5722 28.1576
1 29.0397 36.3226 22.2926
1 5.0034 10.1882 4.4309
1 49.3952 4.89003 3.19718
1 21.9148 44.0179 17.8936
1 7.52559 41.4826 2.89247
1 31.6446 10.2989 1.16937
1 16.1825 6.48449 43.5363
1 27.4481 32.2106 15.3246
1 19.6018 19.1169 10.7155
1 32.7438 24.3675 32.4962
1 0.826643 14.4074 19.0992
1 19.2469 14.9724 3.11933
1 24.0621 40.8601 48.228
1 21.6118 27.1293 7.91609
1 27.0602 39.7557 11.9538
1 22.8388 25.9238 16.8503
1 22.8347 5.8151 24.5925
1 33.8553 15.2307 40.8431
1 30.8499 38.423 19.2114
1 12.0103 19.2268 32.8133
1 1.52707 7.58366 6.78816
1 49.6 23.1618 5.33101
1 45.1979 29.1506 42.6711
1 33.2095 19.2412 11.3051
1 18.8425 40.5718 40.0982
1 28.3826 21.8264 33.7458
1 0.00382949 11.3803 11.3512
1 13.7073 42.4379 45.9289
1 7.2816 15.1147 23.7816
1 20.1423 36.0808 22.4926
1 17.0117 32.8948 42.6259
1 37.9291 3.55487 6.39297
1 24.3278 7.11292 22.8603
1 40.5397 38.342 0.806327
1 20.6403 19.8935 45.5059
1 34.7714 45.6106 19.9567
1 25.6612 14.5461 40.6737
1 8.94844 13.0887 20.288
1 11.0338 40.1069 48.2272
1 43.5467 16.9614 23.6579
1 48.9787 9.96448 8.9927
1 42.7592 26.4729 43.8284
1 47.6368 46.7425 41.2045
1 18.3106 14.9332 19.9173
1 14.1884 14.923 3.34951
1 35.8054 48.355 34.2055
1 47.9972 12.1939 42.7058
1 46.0609 46.9725 15.2789
1 4.32396 49.0581 20.0192
1 23.5945 18.0485 9.26441
1 18.5336 37.0381 41.4559
1 14.0581 45.421 11.4659
1 44.419 31.021 33.4546
1 11.9647 40.993 24.7105
1 36.4434 20.2589 25.0371
1 42.5409 41.1555 7.18572
1 10.44 18.0904 8.63998
1 13.9946 29.4003 0.545934
1 0.614514 29.4671 4.08071
1 1.36437 39.6662 34.2918
1 32.8628 18.5836 38.5426
1 33.1146 45.681 43.38
1 0.824631 46.6038 41.0478
1 20.7215 9.24649 48.7961
1 15.6639 24.0417 14.6794
1 48.1824 3.72567 44.4442
1 13.2253 23.5851 28.1056
1 18.6808 0.547998 12.5461
1 16.085 20.3335 11.6652
1 11.6479 15.7717 2.20953
1 45.9777 42.1912 26.9111
1 1.37565 29.1793 20.6934
1 28.6436 26.9643 26.0869
1 43.1346 19.7045 41.0872
1 2.40539 26.7619 46.2726
1 40.9112 22.2256 35.2636
1 6.04535 41.7021 42.3677
1 40.0767 13.9588 41.6437
1 35.4777 30.6905 5.00853
1 40.7665 11.2886 10.4534
1 31.5161 26.2911 40.7658
1 43.5498 20.2996 26.4073
1 25.1162 6.69542 43.3743
1 3.74032 35.5955 11.8422
1 12.2762 33.4883 9.25205
1 28.5973 42.417 18.7108
1 24.0324 9.51067 26.4488
1 1.13289 2.65056 39.2268
1 40.627 18.9902 9.92998
1 11.9098 4.76559 19.4025
1 46.3188 8.81768 15.8721
1 8.2135 9.5892 13.8152
1 15.596 27.4003 39.6433
1 8.97571 33.2176 30.2426
1 39.4862 15.6416 48.4721
1 5.86889 45.1945 36.509
1 41.1318 47.4403 12.2789
1 44.1755 31.5273 25.6305
1 44.2499 33.6637 43.3057
1 34.0617 5.26816 47.5418
1 3.62262 15.4019 9.19124
1 37.0268 13.7165 40.2494
1 20.1521 1.57968 28.3093
1 46.1063 16.8684 10.4981
1 32.4885 24.4762 6.17755
1 41.6634 29.195 38.6429
1 9.16348 42.4206 30.0378
1 9.34827 48.767 29.2544
1 0.488657 29.6641 39.5962
1 4.14553 36.7997 35.3807
1 2.09174 15.3956 40.7014
1 40.3747 15.5437 11.359
1 47.934 4.45327 0.819292
1 33.2806 35.2296 22.499
1 18.5839 13.5944 12.3969
1 15.5685 39.8494 21.6878
1 31.2263 46.2511 28.7359
1 43.5533 16.0498 8.60864
1 31.1703 39.8318 10.6789
1 41.8114 37.1202 33.1353
1 45.2575 1.37617 46.7981
1 4.46316 42.1637 32.3118
1 1.62976 4.7016 33.3177
1 13.2021 1.77999 26.9821
1 43.4445 22.2635 34.2103
1 3.48587 24.5649 43.0097
1 44.4072 5.19096 36.4803
1 37.6338 15.8295 38.4591
1 10.1166 16.704 12.0431
1 0.231648 11.7611 25.5886
1 46.8157 6.55954 40.555
1 29.2539 28.4467 37.666
1 30.9436 18.3954 8.16656
1 19.1992 5.89341 9.08657
1 37.9493 17.2967 4.85546
1 46.6012 32.8949 9.13129
1 21.2052 21.8187 43.9857
1 3.14959 30.3104 38.9781
1 41.3078 26.8887 30.6319
1 2.74933 12.9191 32.5292
1 8.53344 6.21594 9.14702
1 1.97568 7.94023 23.6904
1 18.9738 2.84196 21.8569
1 17.5068 24.2943 16.9893
1 1.57987 38.6544 31.8893
1 22.8951 5.64596 1.54965
1 16.951 24.5867 45.6418
1 46.278 39.4237 23.5987
1 18.2872 27.1921 38.5703
1 13.9437 6.38417 12.2536
1 33.2426 15.1927 22.3437
1 13.9195 17.9768 17.9195
1 3.57054 15.3794 29.6617
1 45.4866 0.0444843 16.7284
1 39.0513 12.5637 46.6805
1 10.9544 3.25258 15.3484
1 29.077 13.1592 46.8955
1 46.3292 37.087 40.0469
1 39.8661 37.8881 21.0756
1 6.81098 34.3966 9.62605
1 35.8143 40.1432 1.91857
1 14.8988 14.2464 8.68985
1 11.5944 17.1659 43.6638
1 13.5698 13.5249 29.0329
1 0.953026 42.4929 45.1259
1 49.43 37.0402 34.405
1 0.251753 49.1565 11.3517
1 34.8815 43.2517 48.3565
1 7.2028 45.1747 39.0086
1 16.7849 21.2454 7.80173
1 38.0308 13.8922 29.7299
1 15.8931 10.4673 35.8009
1 29.6421 44.8857 10.5577
1 9.62245 14.7792 47.5706
1 13.6216 15.4437 16.6481
1 5.0737 28.3297 24.7457
1 41.5502 27.2115 27.605
1 0.142767 0.565692 40.6292
1 23.3492 5.73604 33.4464
1 21.0376 35.9237 31.7756
1 21.8912 24.1808 49.3948
1 45.8817 15.9362 1.62374
1 42.2012 10.6178 41.3341
1 40.1633 35.9854 48.4733
1 10.5444 15.9971 27.6485
1 26.8264 3.69461 19.3604
1 16.7834 28.4178 1.51412
1 5.25649 45.0254 3.1564
1 12.6422 24.5189 38.1764
1 34.951 13.4617 25.9328
1 39.5296 40.9169 3.50899
1 17.4991 18.4017 18.6494
1 22.0948 24.246 35.1419
1 19.0889 30.7833 7.49512
1 5.68508 47.8409 41.8163
1 18.7291 39.5762 10.3759
1 12.5894 45.3443 36.421
1 36.0572 49.1987 25.5474
1 17.7638 3.19863 37.0685
1 32.2117 34.4219 25.0222
1 15.9742 23.0589 43.4584
1 5.12524 38.075 3.25504
1 2.92632 11.6852 0.713679
1 12.3159 3.217 23.7945
1 33.0699 5.09381 40.2891
1 25.6626 15.9979 28.5116
1 3.23053 5.9902 30.2584
1 22.9999 24.6937 23.6315
1 25.8187 1.451 2.04629
1 11.3984 11.2037 45.2489
1 12.0268 33.0007 33.0159
1 9.84534 42.7738 24.0394
1 49.0744 20.4662 22.1102
1 27.8471 8.47513 27.3315
1 34.2234 2.59564 28.3058
1 26.7821 43.1151 32.7847
1 39.5988 35.64 3.73233
1 36.7845 20.3753 15.065
1 14.658 1.50654 2.4168
1 23.0955 24.0961 26.3244
1 36.1262 36.0301 22.2537
1 29.5268 2.93949 31.9215
1 15.3979 22.9956 21.5438
1 3.6748 42.0197 28.2598
1 35.9229 8.99494 7.6372
1 43.118 9.13786 2.84005
1 26.6827 11.7467 46.8461
1 48.8582 40.1466 39.0532
1 36.0467 18.5473 27.1061
1 0.439206 30.7941 23.7208
1 6.70033 30.6253 7.6845
1 21.2808 7.97148 1.92637
1 29.9753 29.3046 16.0091
1 39.9287 1.25321 20.2704
1 23.216 40.234 39.2452
1 11.3213 35.4516 29.9923
1 14.1285 11.917 37.5009
1 7.84928 40.5122 26.9263
1 32.1038 12.0411 20.0154
1 20.4029 32.5667 16.3627
1 16.1421 8.39778 17.2459
1 7.26747 10.2805 8.43371
1 35.403 29.15 23.1452
1 43.7695 36.6963 38.8511
1 1.98112 22.4422 33.8319
1 7.49068 15.3922 6.83969
1 8.44004 6.3869 31.8615
1 21.5402 12.8779 13.4461
1 35.2347 48.0951 31.2954
1 23.4159 17.5605 22.7703
1 1.45658 48.7798 4.79895
1 17.1024 47.0487 8.31246
1 44.4266 34.4072 47.3719
1 35.3876 33.4149 27.3009
1 26.7795 40.7367 48.3419
1 8.35816 30.8947 2.9335
1 26.1649 22.4165 49.0558
1 20.1515 19.0403 24.3886
1 42.3318 14.0128 1.55572
1 11.1533 28.987 15.4816
1 44.0824 3.56176 34.0548
1 1.10395 44.792 16.6731
1 3.25107 8.96365 35.6635
1 37.628 10.2045 0.63409
1 48.2275 20.3923 12.8843
1 33.1202 11.6693 13.8564
1 6.61907 1.30679 38.4939
1 0.627326 5.15401 29.6921
1 22.4505 31.432 40.8916
1 43.9932 38.6356 27.4043
1 15.2529 8.37995 47.7935
1 29.9844 44.5554 22.7543
1 44.4546 30.1345 38.8773
1 8.81579 34.9949 24.2254
1 16.0532 16.9898 33.8457
1 8.8291 34.6522 13.8151
1 24.2742 5.23299 49.0658
1 17.2106 30.2176 45.1255
1 12.7899 29.8453 28.6794
1 13.0696 49.3605 35.149
1 2.19391 43.6925 39.7468
1 48.0859 10.8248 32.2164
1 36.4541 45.039 44.9357
1 27.5626 0.940961 27.824
1 5.94936 33.4387 14.1869
1 12.7955 12.1943 7.86144
1 16.2231 43.0602 37.0061
1 30.5374 40.0223 21.8809
1 3.2643 31.5053 46.7132
1 4.1259 36.6979 1.0639
1 49.6304 2.71459 47.6487
1 12.2818 44.4157 43.7117
1 15.276 36.7336 28.4165
1 16.7882 45.8152 17.2885
1 18.6384 2.14954 32.3225
1 47.6902 16.0738 45.43
1 8.43851 43.1011 34.2864
1 43.6611 14.5269 30.4468
1 1.36776 7.7658 44.1777
1 20.464 25.1644 38.8657
1 13.9802 44.7483 31.7807
1 47.2747 6.03029 43.312
1 3.76681 4.74223 46.0641
1 40.8329 27.0601 3.08219
1 22.2814 13.1936 20.0228
1 34.7077 24.3805 18.8134
1 19.8539 21.1162 41.6863
1 4.29668 4.0166 28.652
1 36.309 41.0203 8.84427
1 23.9751 34.3099 6.77517
1 44.1425 17.3349 30.0105
1 46.7494 11.3585 38.5731
1 37.0559 19.6741 10.8869
1 37.5967 42.1084 27.476
1 24.0523 33.5811 0.75372
1 34.5536 29.1194 36.3235
1 18.6029 42.737 44.1874
1 40.3712 21.4775 9.01024
1 37.4711 43.3518 7.44522
1 33.8387 7.66198 43.5503
1 47.2451 40.3435 36.8758
1 30.1061 18.6696 17.2129
1 12.5468 4.40911 27.1974
1 41.4996 33.2116 37.6238
1 3.30426 6.50794 40.0224
1 7.06892 44.9232 20.604
1 34.8593 46.7665 8.32792
1 8.1468 6.93802 27.6791
1 25.4736 31.4768 29.1251
1 36.7819 27.061 3.8382
1 0.753625 11.3423 33.4082
1 0.829252 14.5933 26.8731
1 7.6896 42.5438 25.4702
1 39.8742 17.5147 30.7251
1 26.4075 2.34133 25.9709
1 4.44125 25.7411 45.2898
1 5.04541 27.7655 9.13048
1 12.4848 46.1614 23.0594
1 6.44062 46.3206 22.6663
1 37.9055 0.595536 12.7071
1 4.75154 8.82999 6.87501
1 4.37775 33.1277 4.89631
1 7.74468 2.86256 40.6473
1 36.9415 45.3416 1.16801
1 47.7411 15.0239 48.1329
1 38.6015 25.0692 44.0286
1 32.5033 23.3254 25.2048
1 37.5057 32.0444 20.7875
1 4.93912 30.0138 48.7683
1 46.044 31.8951 13.9293
1 24.3831 45.0563 42.4332
1 2.10105 1.59981 21.6337
1 30.9255 17.204 36.269
1 42.2806 4.40808 25.615
1 26.3174 12.2956 42.0942
1 16.0247 0.0774634 30.9133
1 11.2412 23.029 20.9818
1 1.8252 2.57443 25.9353
1 32.513 36.1763 17.8744
1 8.57196 4.32259 38.575
1 9.41398 33.4292 3.66363
1 47.5567 1.83058 0.455791
1 45.2143 0.585556 36.338
1 42.9365 40.0707 48.9825
1 39.958 11.6111 1.01254
1 11.5667 19.472 47.7801
1 0.58645 34.343 29.7689
1 10.2445 18.9689 14.915
1 24.7451 46.3184 6.10004
1 5.28273 39.5226 40.6823
1 13.5745 48.0086 39.1713
1 24.7017 12.5137 7.88053
1 14.5459 8.12538 37.315
1 6.77506 22.1776 12.9834
1 2.67174 7.02083 2.93999
1 25.0115 24.8196 2.47296
1 35.0749 34.2778 42.3157
1 38.6075 28.3482 15.4834
1 10.5835 44.8824 14.1275
1 46.641 13.6339 20.9034
1 48.8669 44.4114 26.2669
1 14.0742 34.6386 24.7496
1 46.9645 10.7913 12.6231
1 38.9976 23.173 16.6392
1 26.8575 23.1589 22.9386
1 15.237 18.4835 10.0477
1 9.77027 1.17621 45.9651
1 15.0056 44.9653 4.44257
1 42.1933 49.3108 14.6211
1 13.3066 30.6667 24.7124
1 36.4089 2.57795 26.2354
1 12.3352 47.4387 43.8741
1 43.0691 34.6498 32.8152
1 10.6933 21.2678 39.7392
1 29.2209 34.6613 37.8138
1 3.07546 13.626 13.7258
1 42.9224 4.40462 49.175
1 14.1963 35.4706 45.1632
1 14.6996 38.1824 12.1664
1 31.4028 5.29579 9.21881
1 48.282 8.82603 39.905
1 5.15081 44.4793 28.3346
1 19.0018 32.5126 29.6698
1 4.17557 46.9532 48.7875
1 30.4157 9.61394 4.98128
1 18.031 43.0382 40.9043
1 36.4799 6.02202 30.29
1 10.3417 43.1963 32.3266
1 48.5365 5.11726 23.12
1 31.1955 26.7367 7.17016
1 5.19913 17.0681 45.1077
1 46.0643 25.9649 3.11074
1 27.5689 0.15521 13.9913
1 0.167319 45.9714 31.4421
1 20.4974 10.802 31.286
1 14.2593 18.52 0.361965
1 10.437 6.25181 13.2511
1 40.9676 47.2507 46.7317
1 47.0581 46.8241 43.8288
1 22.6053 20.6928 6.83086
1 3.62436 40.1508 30.6047
1 46.8553 44.3657 19.5103
1 17.2387 26.9921 43.7374
1 0.718635 42.4284 48.3998
1 4.32895 19.5505 15.6198
1 43.8396 25.6189 41.3804
1 8.92301 3.15279 24.6305
1 48.4657 49.2253 15.7441
1 44.7331 5.81348 6.18631
1 24.8565 35.1323 39.5251
1 7.19658 7.53813 24.8038
1 46.1266 18.4738 5.93986
1 18.4474 40.4756 46.8624
1 39.2986 18.8255 6.85853
1 10.4562 3.12004 43.8913
1 9.46369 19.2361 19.7538
1 26.178 14.0224 48.8727
1 34.9619 28.1076 40.5615
1 41.2873 13.3918 24.8777
1 7.77397 37.667 37.6314
1 40.2422 11.1519 26.0165
1 1.63348 8.96689 33.1173
1 18.3416 48.616 21.546
1 37.0844 44.7059 25.7442
1 12.5044 17.7332 20.5303
1 3.39863 15.4583 36.7351
1 43.373 10.4565 4.87271
1 9.19219 29.6573 31.7832
1 30.0994 38.2954 38.8613
1 26.4416 40.5971 25.9858
1 13.1975 46.4678 7.80191
1 32.4181 6.76957 34.0147
1 49.3786 42.6756 39.2401
1 25.5637 6.94559 30.927
1 25.2384 33.8914 45.1675
1 9.54055 12.7225 3.9631
1 15.0525 11.911 40.0298
1 8.92165 46.597 5.34498
1 33.8158 34.0469 32.5995
1 17.484 14.5382 34.4821
1 27.693 43.1641 22.7876
1 26.0154 32.2693 31.7835
1 13.9437 43.8128 21.8308
1 25.095 7.8783 7.92718
1 18.3762 15.9851 0.249897
1 47.2613 41.2934 16.6519
1 38.6674 30.5739 13.5918
1 10.2531 23.2839 25.3487
1 45.5663 31.03 2.32739
1 48.154 20.3637 44.7149
1 4.10244 9.82287 15.1178
1 33.7076 45.0236 36.9251
1 23.4615 44.9538 13.8233
1 27.111 37.167 35.8692
1 41.2304 39.9799 21.0591
1 22.354 36.4385 3.36584
1 30.2844 12.1108 42.7795
1 27.1654 35.3875 10.5776
1 6.05374 13.4874 35.5822
1 7.95471 43.0153 48.0516
1 5.99186 19.0673 3.84006
1 8.03606 33.4133 16.6544
1 1.52571 27.9979 8.09768
1 8.67336 49.5417 18.4179
1 43.2107 43.6912 22.5243
1 48.451 8.19537 5.95465
1 43.1069 32.6225 19.0264
1 13.3427 25.8728 36.102
1 21.6117 21.5189 0.911286
1 24.9794 4.32088 11.7305
1 18.0936 20.2012 3.40931
1 6.78379 43.5536 6.94352
1 6.20022 40.7523 15.0973
1 25.2713 24.0706 6.6715
1 49.2157 20.579 17.122
1 36.3969 26.7336 31.9541
1 22.1251 40.0139 46.4756
1 16.0773 17.3091 47.7381
1 1.85248 8.29272 15.5323
1 34.2662 8.53252 37.8738
1 21.4859 1.5775 15.1324
1 48.1025 12.8794 18.7493
1 39.3462 34.765 12.4122
1 22.6299 25.9251 33.1457
1 43.2322 24.6395 10.2453
1 38.6419 7.98303 18.2519
1 35.109 19.8754 44.4346
1 0.613086 17.0796 28.4426
1 48.0548 47.3559 12.4813
1 8.91262 28.5532 41.9797
1 8.41845 32.0259 6.26339
1 16.8342 12.6636 9.20102
1 31.9556 13.2562 17.7422
1 10.7329 21.3694 33.4886
1 19.643 43.1158 31.5363
1 45.4374 34.497 18.3899
1 43.8022 7.31643 19.3054
1 29.9671 35.4216 40.399
1 5.41094 3.09859 36.9493
1 33.4423 32.1453 47.2293
1 2.07095 25.0674 39.2632
1 20.0316 46.3548 47.7507
1 23.9789 48.2577 25.183
1 44.1995 4.62052 40.8596
1 33.8077 35.091 29.127
1 4.99904 19.4624 35.4864
1 32.039 23.8868 17.6754
1 38.6667 29.1924 35.6447
1 35.9012 28.8487 0.738422
1 12.7055 24.1877 15.5299
1 28.3956 28.1115 35.1062
1 30.7452 14.74 1.34044
1 16.1394 1.85864 26.8566
1 35.2075 31.2967 15.6144
1 0.566787 11.7664 5.51434
1 5.01091 48.8456 10.6143
1 4.13478 29.0326 19.408
1 25.2204 1.49003 36.0824
1 10.4247 6.60564 7.05114
1 27.2922 32.8631 39.7026
1 20.9498 4.56439 5.34409
1 33.3823 47.7483 1.78224
1 20.745 14.0401 5.41096
1 27.9231 3.25066 17.1113
1 11.288 22.3032 7.80779
1 10.9008 6.74945 20.9173
1 35.8287 6.5294 25.1576
1 40.5655 10.4867 13.242
1 22.9722 33.0953 10.4789
1 42.767 14.9216 15.6881
1 18.4282 24.6481 1.93265
1 39.387 19.0286 15.5592
1 27.7103 12.4724 28.9438
1 16.5887 5.75059 38.4171
1 46.3442 31.4996 17.7474
1 25.9497 45.2868 2.18361
1 9.76921 41.4179 44.8908
1 8.90178 34.2978 20.3227
1 39.7939 28.3538 5.59143
1 6.96027 34.2574 49.1202
1 49.2028 5.6279 25.7783
1 7.60565 40.1101 10.6952
1 30.8916 29.1511 45.2526
1 39.6811 43.3473 11.2928
1 13.8875 31.6822 49.2541
1 9.0447 27.9176 2.39374
1 22.4013 21.4991 17.7106
1 34.4869 10.7598 11.5363
1 9.38036 3.12321 21.269
1 41.2553 24.1667 2.5366
1 4.61017 25.0499 9.45212
1 46.0037 28.8541 49.1995
1 25.3991 45.2344 31.4411
1 41.3271 17.3583 43.1416
1 33.1833 41.0566 47.918
1 49.1089 21.6625 25.9278
1 11.6226 48.5253 7.099
1 33.9144 29.5321 18.7822
1 40.1145 36.0409 37.4454
1 47.0495 17.6695 34.5912
1 7.32429 44.5311 43.4914
1 19.6706 22.6754 20.0778
1 6.48383 48.5409 17.551
1 13.3994 12.7867 31.5691
1 37.7873 2.90124 14.8891
1 35.6847 15.6808 5.44868
1 13.4095 3.84834 12.1263
1 6.35443 4.52147 4.71914
1 0.991795 13.3193 39.5399
1 4.53675 6.47965 34.6801
1 4.80658 10.3273 48.9467
1 24.0164 38.1601 20.5617
1 35.3509 20.9701 49.2139
1 16.6264 36.3812 5.04224
1 38.7193 28.8918 2.18018
1 40.9635 15.0823 44.3744
1 34.0649 21.5774 2.13148
1 29.2626 33.9943 8.0411
1 0.331099 29.4313 48.5728
1 49.32 14.3462 43.8255
1 45.1605 34.3966 28.512
1 27.1463 19.5479 3.24418
1 27.1084 30.4817 13.4522
1 8.6496 46.99 10.2244
1 9.95728 35.6225 34.2445
1 2.37021 36.0177 31.2715
1 19.1652 35.3649 11.9705
1 28.9155 15.6572 32.4962
1 23.7252 15.6693 32.9011
1 10.9413 8.4651 0.173559
1 15.3374 30.8985 43.5401
1 1.65534 36.3738 39.7116
1 6.09767 48.8265 22.0781
1 39.8313 19.6195 45.3564
1 49.5623 8.37645 25.6403
1 45.3385 26.6863 22.7965
1 9.78411 48.2394 44.7409
1 10.9009 34.2091 1.42478
1 25.2086 34.4115 23.854
1 10.7229 13.1261 43.67
1 31.6338 38.3777 49.5554
1 3.84673 40.8239 5.2848
1 10.1927 19.6933 24.0521
1 4.34696 42.6874 10.6187
1 43.547 23.654 1.06899
1 44.2241 28.9349 24.0761
1 1.21551 45.2184 29.3149
1 45.7097 31.8621 28.851
1 39.6041 37.1359 31.9549
1 40.5073 10.5833 33.8812
1 32.3977 35.1029 43.095
1 7.04338 23.73 2.13521
1 37.8331 39.4611 31.6367
1 39.2561 39.872 40.4006
1 9.14538 43.7014 5.67303
1 5.87443 49.5474 15.0735
1 29.4116 27.2839 0.92308
1 5.33419 3.94175 2.27886
1 14.2208 42.3211 12.4971
1 5.04929 47.5372 37.6513
1 5.11496 6.40923 44.1498
1 48.7667 7.66937 10.5262
1 0.594802 8.3292 3.35128
1 13.973 4.36259 1.10986
1 23.7942 31.7154 26.9731
1 23.0825 15.7051 43.8672
1 44.9082 43.0747 49.2624
1 10.717 7.57883 37.9811
1 5.98168 25.9683 25.7058
1 35.6975 35.3988 5.5091
1 47.7512 27.5621 45.1711
1 20.3358 30.2915 36.9936
1 16.9528 1.89853 46.2052
1 6.65998 27.9127 37.9164
1 6.49981 22.7496 8.69886
1 3.6476 25.0924 0.314556
1 48.3839 23.5373 18.3331
1 28.4972 20.731 15.4363
1 37.4411 10.756 40.4801
1 4.45301 37.5072 29.9294
1 12.719 27.6279 20.6219
1 17.9786 8.05527 20.1835
1 42.3291 28.5665 35.6215
1 43.2729 33.4029 3.42104
1 11.0046 47.3275 21.4674
1 40.0885 20.4671 20.2229
1 36.0181 5.87619 14.2152
1 20.6514 36.8116 18.3503
1 33.4702 27.4904 48.0175
1 2.43822 28.6272 44.2062
1 48.3681 34.727 8.40567
1 16.5062 26.4171 13.3195
1 31.5422 33.0711 40.0854
1 3.0379 29.3368 15.2417
1 36.1623 15.7396 30.862
1 49.5471 14.3055 6.55782
1 2.27375 22.2452 7.97292
1 48.5354 38.7921 15.5158
1 45.162 23.462 43.1357
1 17.6266 4.25458 48.3095
1 7.9195 28.231 13.6101
1 14.6663 2.5645 10.2835
1 24.2087 33.9695 17.1532
1 48.4854 48.6473 34.1147
1 34.2644 40.3834 12.5918
1 5.55168 37.05 41.0299
1 4.40941 6.83858 24.8187
1 44.9837 42.6062 20.6987
1 21.5554 42.5995 28.8024
1 23.0087 27.6062 29.5737
1 28.0405 30.6688 40.7749
1 41.9749 0.00952634 21.8346
1 13.5535 2.22755 16.4691
1 46.5648 31.0169 31.5031
1 0.663476 25.2809 20.9467
1 7.35047 19.4859 23.0807
1 45.6815 39.2206 7.10825
1 7.4208 46.0666 31.2315
1 32.384 14.4539 32.8868
1 5.61741 34.1961 27.8743
1 1.35909 23.2568 43.8915
1 1.21418 17.9439 39.2457
1 25.5926 31.8769 47.2666
1 46.4216 43.2282 37.7597
1 18.4385 49.0379 40.6862
1 13.3126 9.54411 49.0856
1 39.0234 8.10381 40.9745
1 25.9887 39.1518 44.4295
1 32.4683 9.08757 10.1465
1 9.91597 36.1865 6.19268
1 49.4066 43.4093 32.2732
1 3.46358 10.6417 10.0816
1 14.0837 38.0126 48.2964
1 12.8997 7.92609 14.2252
1 7.97203 31.8212 10.0837
1 45.6937 22.8634 20.1807
1 21.3309 10.5179 20.7336
1 11.3944 18.884 36.843
1 47.3796 23.251 44.9667
1 33.0534 46.8964 10.564
1 6.1805 3.48115 46.5659
1 11.7014 38.786 23.5177
1 28.5871 38.1249 17.6565
1 4.00308 22.5227 20.6947
1 12.2208 7.36735 41.315
1 12.9047 14.5226 14.0389
1 29.2339 37.1364 15.1891
1 24.8688 26.3029 10.2174
1 37.339 27.5767 29.5301
1 44.4745 45.3444 1.2561
1 14.6239 40.5155 49.2185
1 24.6802 37.8749 46.6472
1 4.80254 17.7425 38.0648
1 12.8835 40.3692 27.4283
1 10.4882 3.7938 3.34097
1 22.45 22.507 21.8783
1 44.9103 36.5581 43.001
1 15.1631 44.0483 43.3207
1 23.3457 43.3524 48.6111
1 25.365 48.7678 21.3103
1 15.8071 33.0985 18.0884
1 15.513 40.1829 2.1821
1 16.4115 33.0009 28.53
1 13.7672 41.8134 16.2497
1 47.154 44.9818 11.5668
1 7.85787 10.3597 4.26961
1 22.1366 26.0154 43.7577
1 24.3917 35.4756 29.8693
1 7.18022 26.297 3.50548
1 3.37496 15.1568 21.5884
1 4.45947 12.2973 46.2029
1 2.04351 33.4372 3.21149
1 5.90178 17.9532 13.9806
1 11.5378 12.7778 25.9914
1 40.7723 36.4784 13.9759
1 6.24601 26.5616 33.2032
1 7.43814 15.7976 48.527
1 11.0383 45.6305 19.1125
1 0.195696 41.8474 1.76076
1 32.0162 28.477 0.481845
1 2.34163 25.203 34.0691
1 31.8201 44.6195 20.6061
1 8.70317 9.71948 48.3782
1 16.2742 32.1864 47.5134
1 17.4066 42.05 6.35795
1 24.862 5.37963 8.36883
1 30.1878 44.237 26.0629
1 44.6794 38.7169 4.50192
1 17.9834 40.6677 28.6212
1 6.53327 5.5587 19.3368
1 11.3367 26.4854 5.66502
1 38.8413 39.9967 37.87
1 40.6398 7.30316 43.0418
1 37.9536 10.3079 33.0214
1 20.2135 38.4749 29.1705
1 21.7906 45.4944 22.9748
1 8.74185 24.0831 15.1072
1 10.8441 37.1243 27.6208
1 21.7712 21.5473 37.3392
1 47.5421 49.2453 31.474
1 39.5563 5.89701 13.8023
1 34.4264 43.386 34.563
1 36.0454 15.9068 35.3566
1 43.9417 37.7367 23.3141
1 21.1513 16.3517 35.3838
1 36.3923 26.386 35.5356
1 11.5976 41.3131 36.6209
1 29.0535 10.7322 0.870587
1 44.8904 29.9991 15.9727
1 41.6102 28.5689 23.8838
1 34.8669 29.6511 46.1646
1 35.3035 46.3358 22.3984
1 40.3959 3.14736 35.7539
1 29.0806 7.03926 38.7777
1 17.2421 28.6208 15.3043
1 20.9208 19.6792 21.4196
1 13.0406 27.2166 27.4039
1 47.9944 36.3806 2.74369
1 17.8423 40.683 25.67
1 43.994 22.5723 27.7837
1 17.4715 30.3168 22.9643
1 29.7938 20.3397 22.1613
1 37.7587 46.3104 14.1713
1 16.5351 23.5463 30.911
1 8.07677 16.6254 43.1213
1 31.4682 42.9292 2.04149
1 29.2083 12.2964 9.35564
1 48.0047 35.0559 24.6307
1 40.8207 29.4369 49.1732
1 32.7573 40.2362 18.2515
1 27.0253 16.6681 21.2895
1 42.2903 13.5235 19.6036
1 10.3639 16.0232 22.4675
1 7.58683 40.1571 18.5993
1 25.4921 43.1155 43.9721
1 25.9288 11.6395 22.1731
1 47.5531 43.9306 40.8398
1 26.7616 30.3345 33.6651
1 37.5391 29.2139 39.9812
1 0.469865 3.94434 10.5905
1 24.2499 31.5395 24.221
1 29.6274 42.5577 44.4195
1 31.3281 4.88792 3.31967
1 2.90773 4.88566 1.12731
1 42.8206 29.7043 9.13753
1 4.30637 36.531 27.3114
1 12.0362 37.4218 41.8987
1 23.4835 46.4276 45.6601
1 20.3044 34.7272 8.05183
1 0.742918 34.5264 5.30109
1 8.24011 3.47157 1.33852
1 28.3235 22.7642 37.9193
1 4.52595 23.3165 2.37551
1 15.4957 35.8306 49.1756
1 47.8496 30.4115 12.8649
1 1.46526 23.0452 19.1436
1 0.706127 27.3277 18.6901
1 49.5094 39.4968 5.19074
1 29.9877 12.3653 36.1588
1 32.4454 9.57331 44.8993
1 33.9982 20.5337 15.5499
1 40.5416 26.5654 8.06145
1 5.24047 20.7299 42.9197
1 47.5639 16.3129 4.24126
1 43.3339 44.2437 3.65333
1 35.2598 23.5401 25.9325
1 0.672202 20.1466 19.5956
1 22.2621 9.45495 4.16223
1 32.2695 1.31024 37.3913
1 34.7472 21.3485 21.8544
1 45.623 37.5015 34.8206
1 29.0525 9.78622 29.3445
1 43.3871 14.004 45.0836
1 19.4144 12.0963 17.8163
1 9.3285 29.4321 45.3266
1 23.4271 30.236 0.526376
1 42.0032 38.3226 6.56125
1 19.1529 4.39182 26.6132
1 5.92583 32.5673 24.0928
1 23.8288 16.4727 15.87
1 14.5937 34.1525 1.05663
1 17.854 35.4859 35.2313
1 19.7363 30.9794 49.0329
1 2.77012 28.2904 23.4167
1 23.0385 40.8104 23.249
1 15.5442 20.6036 17.7669
1 10.0014 29.047 4.9403
1 16.7668 17.6086 36.8445
1 41.7818 4.38849 22.3239
1 2.04203 11.312 45.3829
1 38.3422 5.48719 24.0446
1 16.3897 28.5268 24.8971
1 7.66866 18.4149 34.208
1 40.4604 35.9434 40.2454
1 3.00444 28.4614 10.7969
1 33.9548 45.4641 4.64353
1 7.34479 41.6278 12.7548
1 48.5508 49.2267 44.5201
1 36.4456 33.2993 18.7729
1 18.2484 48.3329 3.32687
1 18.5772 12.6527 1.72386
1 4.17359 31.2626 6.7959
1 42.1502 38.9274 12.8807
1 45.9337 5.26278 48.3201
1 7.14808 45.4533 34.1999
1 34.5884 46.6575 49.0821
1 18.4446 6.12513 12.4505
1 0.396996 20.4186 48.2987
1 34.7621 39.395 37.4791
1 23.0527 34.1288 19.842
1 29.7888 45.5026 30.9986
1 0.0932663 28.3525 25.1427
1 43.3674 21.9126 46.3308
1 47.2854 39.1729 3.51716
1 46.1699 21.9359 3.64007
1 30.3157 1.92857 27.2765
1 33.1736 42.416 26.0516
1 27.0935 27.203 9.10981
1 7.81034 0.660032 31.0257
1 25.186 30.5313 8.96825
1 13.8891 43.0083 27.0189
1 43.4538 9.06569 21.8517
1 37.1767 13.529 24.5808
1 5.14302 42.7883 20.0651
1 9.28584 49.0232 22.8485
1 15.8448 43.0686 25.375
1 16.8581 29.907 27.443
1 2.82072 46.6101 34.637
1 8.03177 32.2348 37.5982
1 1.08901 42.4671 29.2161
1 20.0774 15.5901 30.6047
1 1.67512 4.25737 5.19314
1 2.19154 0.350085 9.14349
1 17.4205 32.7542 2.73347
1 1.05159 14.6013 21.8392
1 21.8254 15.894 24.0412
1 2.19123 10.4481 7.50782
1 26.4493 0.458684 19.167
1 3.94964 25.7547 31.8386
1 19.2976 38.4313 48.6712
1 45.3568 39.1497 43.9442
1 18.1639 7.7138 37.3616
1 36.5906 31.8583 7.70378
1 41.5641 31.3441 35.6809
1 41.4725 28.9081 43.9414
1 41.2629 42.9835 2.04785
1 11.2136 4.46378 29.3868
1 6.71203 36.0767 16.723
1 48.5207 35.1988 45.5305
1 25.549 27.0963 43.0058
1 35.463 18.0878 7.36588
1 1.63462 3.10013 45.057
1 14.359 6.34886 27.3651
1 33.7442 37.3105 33.7787
1 26.3731 23.8449 11.0861
1 8.67452 40.4831 42.2652
1 20.0504 11.2417 5.50173
1 28.3586 16.9034 1.89033
1 8.36096 30.2575 29.1446
1 40.2283 45.5816 40.547
1 14.3508 10.3915 1.67868
1 32.7974 32.1379 10.417
1 40.8702 43.8384 5.59346
1 8.39157 17.3937 29.2898
1 34.0098 2.88242 14.7533
1 25.987 45.2702 40.2803
1 20.5284 6.88318 29.0348