4096
 Atoms. Timestep: 11900
1 43.5215 26.6862 4.5053
1 3.09389 3.62911 30.526
1 17.8295 7.57766 14.1162
1 40.9446 31.2961 13.8485
1 49.3812 15.5487 7.1033
1 0.023707 19.4887 28.7002
1 29.5239 22.6485 17.8162
1 14.3172 45.9665 11.0997
1 49.2069 32.6886 35.4394
1 22.0155 16.29 7.02922
1 2.07252 13.6466 39.5693
1 44.0347 29.1391 5.80358
1 40.0455 30.0286 16.2762
1 14.8604 29.8468 33.5662
1 17.7966 7.09053 19.3726
1 2.88275 35.6979 9.45526
1 8.72404 11.5882 36.3895
1 47.2235 17.3442 1.73279
1 30.2829 29.5074 16.8743
1 19.804 45.172 35.0653
1 12.0696 39.722 17.5165
1 29.3171 7.03349 31.7268
1 22.2007 8.01389 5.13251
1 24.2526 37.9654 14.5363
1 32.551 26.4426 14.6106
1 4.55126 19.5908 13.1168
1 22.048 36.4879 23.3612
1 45.758 19.2551 25.9889
1 49.6929 8.89734 27.2191
1 40.1108 38.7851 12.5015
1 8.77543 10.5154 2.51496
1 25.7493 18.7744 30.6701
1 36.6421 27.6596 16.2243
1 9.62203 1.33307 30.7804
1 12.9155 39.2536 26.4668
1 20.8301 27.6194 48.3467
1 21.2049 24.3355 1.65253
1 17.504 47.813 31.9875
1 27.0884 5.86043 -0.00690742
1 35.5869 19.0044 18.1346
1 49.4851 0.18976 27.1121
1 36.0616 39.0065 46.253
1 3.34927 19.4172 26.9299
1 39.8033 36.5108 4.39201
1 15.1002 11.3064 9.04664
1 44.8116 17.1567 5.7833
1 19.1735 15.9909 2.51081
1 3.3557 45.5399 27.3431
1 23.264 40.3613 38.449
1 11.7868 22.7743 32.886
1 45.0811 25.7429 7.22601
1 25.139 44.5333 46.7753
1 3.46953 10.287 39.7883
1 31.8668 28.5885 29.6888
1 17.7117 31.7508 20.5745
1 8.89445 40.3248 8.01124
1 44.3026 24.7359 11.7326
1 1.5841 15.277 23.1126
1 12.337 24.1128 18.7746
1 4.57792 38.28 18.7798
1 28.9075 30.3663 33.6339
1 13.2236 7.7618 36.262
1 12.7465 3.20233 2.5352
1 0.578328 41.9283 26.1695
1 13.6806 43.1208 0.427387
1 2.64084 29.0775 6.1237
1 2.82754 8.81482 0.751523
1 1.86447 34.7314 47.0797
1 10.0269 41.4233 3.48545
1 28.7918 7.85722 48.6875
1 21.3937 20.7239 24.2729
1 40.2437 32.2179 5.44087
1 2.93216 7.20125 4.71374
1 28.1155 42.0565 41.1029
1 11.917 2.15391 22.6447
1 45.2008 21.2962 5.02396
1 49.4555 21.8384 16.19
1 2.09378 45.1853 31.0782
1 31.5606 13.3985 22.3273
1 35.1261 42.8069 15.9534
1 34.2433 15.7996 32.5778
1 5.35648 20.1897 24.9898
1 15.7739 21.9167 32.0084
1 40.1086 9.89773 25.0164
1 13.0568 26.9367 11.6355
1 37.596 30.3917 11.6364
1 38.9468 10.0185 49.4192
1 47.2628 15.3036 49.1196
1 39.3407 36.2004 47.8456
1 22.9657 27.1793 7.99018
1 5.29999 4.31589 36.8237
1 2.63831 1.37435 6.67305
1 32.5051 28.8493 23.6149
1 16.0684 39.9549 21.8421
1 21.5326 34.3627 1.0002
1 25.6073 8.10473 7.3344
1 3.27223 1.4802 17.4671
1 11.6956 9.53968 29.6194
1 26.9201 26.4914 34.234
1 37.7755 24.1211 36.8168
1 19.2886 24.1257 13.5913
1 33.6823 18.1133 48.7264
1 20.4127 19.0451 27.5097
1 40.7358 3.01586 39.4778
1 31.6806 43.334 39.9786
1 22.8136 22.6851 6.19658
1 0.956417 45.4148 28.5953
1 43.8871 2.49075 26.8661
1 44.7417 46.1609 18.362
1 6.10373 13.1954 20.4124
1 39.9416 40.3685 49.4975
1 25.3401 33.4243 6.44996
1 35.0678 1.30649 45.4659
1 34.6219 3.05435 19.1097
1 23.9952 27.5845 21.9616
1 8.41438 34.7725 9.88826
1 46.5769 46.4979 27.8193
1 31.0392 18.5855 49.5175
1 9.82637 36.7227 24.3701
1 46.8973 2.20694 29.5204
1 6.66774 46.8891 19.0038
1 12.0006 1.46589 38.1448
1 47.4038 34.4152 9.22915
1 29.8034 7.6285 23.6434
1 44.5726 47.5415 38.7007
1 37.5036 24.6852 23.6168
1 2.07828 32.3223 22.3629
1 8.93761 9.00995 36.6708
1 21.1995 15.5874 47.8687
1 23.6513 39.278 12.1802
1 47.9948 7.43477 43.6766
1 22.5621 48.3925 11.111
1 9.27314 30.9815 44.3557
1 1.49905 14.3513 13.4415
1 12.8393 29.1147 41.8753
1 14.5733 46.9141 18.2392
1 46.9954 1.3123 47.7031
1 36.4755 14.4123 48.3589
1 1.52211 33.7278 16.0996
1 35.0017 0.36077 3.69756
1 17.8014 26.7247 1.4873
1 36.0064 9.15102 21.0505
1 40.5069 23.156 37.2826
1 38.2098 34.2512 3.6895
1 30.6828 12.3219 5.1775
1 13.2117 1.33612 30.9911
1 22.0766 39.2198 23.555
1 7.62039 38.8501 0.693232
1 26.4763 16.3191 36.8365
1 23.356 10.1201 3.94486
1 9.39082 1.0988 8.91817
1 1.50045 28.8142 3.63452
1 7.57209 28.7429 25.5548
1 33.0541 32.1719 45.8584
1 44.5263 16.7699 30.5973
1 8.39524 5.53176 41.2178
1 32.4283 9.06055 47.4009
1 15.633 36.9596 7.97248
1 25.8714 41.881 25.0423
1 27.5756 33.782 31.7047
1 49.4748 11.3951 23.8576
1 3.38265 42.1591 10.0702
1 36.218 42.829 26.6056
1 17.3556 49.2898 47.3631
1 26.8519 12.1558 5.93767
1 36.3738 0.671185 36.1763
1 40.7799 2.61653 7.6546
1 3.13431 49.5462 35.7937
1 2.46092 9.62785 17.6454
1 13.7948 43.4047 22.5148
1 33.644 36.3856 41.2395
1 28.5554 7.94464 15.7945
1 3.1802 11.7547 6.94918
1 28.2089 10.573 43.3929
1 0.13178 23.5192 49.7554
1 12.6281 39.593 23.9871
1 14.9223 31.8418 20.3066
1 44.4943 30.0063 42.7773
1 31.2802 32.7009 9.43901
1 15.2044 0.00214903 17.2825
1 29.3432 0.477411 28.3796
1 31.7002 5.26202 26.0453
1 7.5451 6.54368 11.3833
1 49.534 12.3055 12.7642
1 0.59666 43.7192 35.9522
1 40.7274 29.2451 19.1034
1 49.1094 49.3595 43.1808
1 21.0556 26.7598 41.6883
1 31.4465 6.33111 35.349
1 12.5059 6.46843 10.8498
1 14.7255 8.42243 18.7463
1 28.128 12.1773 37.0303
1 0.558082 43.1433 15.6391
1 35.4262 40.9125 48.0867
1 18.9662 43.5033 37.5968
1 43.5431 1.99978 24.2585
1 3.20463 24.463 15.3164
1 42.2131 9.53439 10.5809
1 15.3017 13.9205 3.83583
1 48.9886 33.2326 44.1278
1 1.83283 22.0488 47.3382
1 44.5956 16.5797 26.9062
1 47.0289 42.1639 28.7669
1 44.5555 28.7314 34.6691
1 40.5108 34.7878 21.23
1 37.5292 27.5593 10.7823
1 19.8256 36.4666 22.2818
1 40.6073 8.18668 7.19953
1 25.5845 38.3275 10.3908
1 13.8085 27.3578 49.2942
1 21.8068 27.8162 34.6496
1 14.3008 48.8761 44.7193
1 40.6673 16.9134 18.4664
1 37.3372 43.4733 11.9912
1 6.88355 31.9329 41.2546
1 5.60231 34.68 37.2737
1 11.8324 33.4104 13.7889
1 24.6937 8.2901 45.432
1 32.6354 13.2463 48.5842
1 16.9143 29.3426 43.906
1 41.4208 22.5578 0.616197
1 32.414 15.0528 2.3778
1 45.5873 18.7709 8.95902
1 49.1899 11.3621 28.1349
1 0.89135 1.50019 38.7577
1 3.75021 12.3601 29.8622
1 46.8869 3.94924 6.44593
1 36.1985 36.3612 13.8758
1 23.855 10.314 25.577
1 27.8484 17.8992 2.4643
1 27.6056 1.62731 39.6602
1 37.281 10.2113 34.0333
1 12.5614 45.7674 32.8663
1 13.1655 43.0766 28.3453
1 14.5699 23.3348 29.8903
1 44.0118 40.0813 36.2479
1 2.30931 33.2583 18.6774
1 1.05395 3.46028 47.0482
1 38.9159 43.1774 38.7683
1 9.16569 20.1226 23.5824
1 26.4667 47.6647 37.3039
1 9.81599 41.8632 28.6771
1 28.9834 3.32933 17.0879
1 0.69468 46.8351 9.76384
1 32.7069 13.4214 41.7287
1 25.3635 31.3085 20.8757
1 34.7189 17.5083 2.34635
1 34.978 10.5047 40.1768
1 37.8147 1.18442 12.1691
1 48.2301 11.2769 7.31001
1 18.6626 48.1223 24.479
1 40.0654 49.7384 3.50383
1 18.3146 31.7103 25.7551
1 24.5058 17.9429 36.6955
1 42.3218 3.31553 5.42417
1 42.8257 32.6141 39.1729
1 15.3873 22.6321 11.62
1 3.15715 36.8799 46.3412
1 14.6855 43.2971 30.828
1 21.8583 25.4008 6.29524
1 29.798 18.0204 10.8225
1 16.6881 36.5625 12.1498
1 25.6457 37.258 24.1927
1 34.1395 45.0985 5.33513
1 34.0767 7.78892 13.547
1 41.5266 15.0758 10.8465
1 45.1325 19.8074 40.2516
1 3.27837 2.84808 14.9418
1 32.6294 42.9963 44.4345
1 40.7814 32.8319 24.0769
1 35.8937 7.95243 35.3822
1 15.4704 13.044 22.9863
1 42.5227 30.7406 45.1129
1 8.90456 4.62234 36.0853
1 0.769095 17.2681 18.3077
1 13.646 10.2258 11.0191
1 1.67821 11.1667 11.2564
1 11.1742 32.6776 18.0626
1 41.7248 15.1617 31.3126
1 47.0703 24.8793 28.7223
1 5.04099 17.3389 29.4655
1 8.56012 34.7009 1.3433
1 41.0222 21.5264 27.3841
1 15.1875 39.4006 6.61435
1 33.2077 46.1666 30.7823
1 23.8067 41.6871 16.9947
1 18.5432 19.5447 23.2639
1 24.9675 47.3723 4.56116
1 14.2465 25.0641 36.7557
1 9.02599 37.8936 35.977
1 3.28342 44.5396 20.7818
1 28.0796 7.32664 45.8992
1 29.0877 36.1176 14.6625
1 16.0606 17.1727 30.5294
1 12.658 26.4545 40.9228
1 5.00476 16.6193 41.3654
1 1.7559 11.9051 43.7756
1 33.314 24.4838 40.2604
1 40.8624 35.8317 30.449
1 11.8118 17.2255 14.6147
1 3.13766 29.3674 25.2586
1 34.7184 38.8686 29.8212
1 48.8155 11.0118 0.645304
1 10.3872 17.5177 21.7863
1 11.0696 14.3267 15.6664
1 16.9613 11.2996 19.3591
1 26.402 29.6662 7.24349
1 41.8731 35.3444 8.38293
1 37.0725 2.21296 15.039
1 35.946 23.8531 19.0012
1 49.3875 16.7457 23.2113
1 41.647 26.6089 42.4975
1 4.53105 15.9427 48.1696
1 27.314 19.7652 12.5197
1 13.9151 39.9738 31.2112
1 3.13302 30.5745 2.0951
1 29.3518 46.1114 39.1054
1 24.1065 27.7388 45.657
1 22.2503 4.44172 44.9946
1 40.2655 11.3088 14.531
1 30.159 40.5198 36.6867
1 6.01416 44.305 24.8896
1 43.8324 21.6778 8.91345
1 14.1653 18.7783 45.7186
1 31.629 12.9638 45.8974
1 26.0044 20.0623 39.8888
1 3.05799 7.14965 21.6901
1 7.64905 19.6598 26.2113
1 18.3018 1.53094 42.2643
1 19.8873 26.8131 17.1769
1 36.6698 24.3442 14.2235
1 20.9737 5.36236 20.8364
1 49.1947 16.9144 47.9555
1 41.0061 30.0296 23.3505
1 7.76662 10.6381 20.7184
1 44.8382 10.0345 19.6343
1 45.1293 33.5222 25.476
1 29.7026 40.8356 5.66968
1 8.84687 33.1907 24.538
1 23.8441 22.8121 28.2903
1 0.220079 42.7746 21.8224
1 44.6168 25.2731 49.5513
1 47.2182 4.74977 31.621
1 27.1416 8.94231 35.0904
1 35.9678 27.4505 6.94606
1 35.16 33.1219 33.0712
1 31.2595 5.14807 10.8502
1 18.2781 43.4034 33.7798
1 48.4246 17.3047 29.7123
1 46.9138 46.8507 4.88948
1 7.49351 44.9757 27.5744
1 37.3042 27.8372 42.669
1 14.5747 13.3282 41.9351
1 23.6179 4.932 13.7545
1 8.19733 43.504 43.1971
1 9.75481 13.4028 27.4457
1 41.5431 27.2842 46.7877
1 41.1165 10.0889 42.9537
1 19.3859 1.52026 18.4694
1 35.5322 47.5292 29.6442
1 30.3593 26.2583 38.3623
1 19.8161 33.506 11.6134
1 28.2489 4.96803 23.174
1 17.2536 14.6941 45.6962
1 6.94336 42.0326 23.8697
1 46.8012 6.5998 14.3465
1 0.869364 33.9395 5.29516
1 2.7178 47.907 33.73
1 17.638 12.3608 41.4069
1 15.9988 41.6364 35.8407
1 18.2499 8.04782 3.47604
1 0.666209 8.42908 5.12106
1 6.37471 13.2531 14.9951
1 31.6746 18.8291 8.35921
1 45.5888 13.7492 9.37438
1 42.8704 1.23419 10.0572
1 0.923444 39.9293 6.96112
1 29.8891 27.2862 3.95442
1 30.3779 2.72371 11.8339
1 23.743 0.587153 39.4283
1 15.7444 8.5372 47.5853
1 33.0756 7.67624 5.52205
1 43.712 26.7828 27.28
1 12.6431 4.96062 4.52557
1 20.4992 16.1459 45.4791
1 11.549 6.68868 46.9995
1 5.25969 31.6311 3.3362
1 20.9507 11.4218 30.3283
1 5.31699 8.09596 32.0706
1 2.27842 18.1967 11.3665
1 35.4537 33.3197 46.1431
1 34.0282 8.1591 9.76725
1 28.6688 30.4198 47.9111
1 13.5648 37.5621 12.7736
1 24.7935 8.99732 31.7521
1 26.1517 11.7203 35.2979
1 9.29591 0.287458 15.8158
1 5.5498 17.6254 1.73995
1 32.9789 28.4367 16.4213
1 25.2723 49.2606 29.4635
1 13.5337 9.26292 21.354
1 6.05796 11.34 8.37397
1 34.9505 1.86002 28.6448
1 25.0969 37.6746 42.7874
1 3.96793 14.1663 43.8706
1 47.1472 25.7521 14.2639
1 25.6378 25.4268 22.3365
1 45.6463 44.8072 25.6691
1 25.4992 16.0221 23.6839
1 32.8657 47.5827 48.3514
1 34.7274 2.98206 35.0806
1 8.24915 4.9668 21.0429
1 22.6898 35.6673 14.066
1 23.6484 29.3065 35.6689
1 21.1194 32.4809 34.0397
1 30.8104 28.6766 10.6645
1 25.7397 23.3942 30.6211
1 26.1285 38.217 32.7548
1 21.4949 47.8901 34.5838
1 26.8305 0.284772 33.3928
1 10.5238 32.6905 20.7101
1 5.88045 27.5909 45.5927
1 1.08884 47.7479 15.9637
1 22.0079 33.0925 38.4922
1 14.0407 1.96363 11.0874
1 20.7676 18.3065 41.6845
1 12.7775 37.4978 21.9416
1 10.9831 36.4941 3.88409
1 25.3187 27.2475 47.9727
1 11.7464 13.7635 42.0205
1 24.7745 4.84114 29.784
1 15.592 9.15426 1.19231
1 6.29022 24.7736 48.0772
1 18.3483 22.1517 32.0235
1 3.64563 48.5872 11.89
1 1.05904 13.6974 48.4917
1 19.4036 32.2362 31.6252
1 30.6927 8.97579 33.1147
1 40.3001 22.9204 47.7634
1 8.87973 46.5725 40.6759
1 11.5309 4.10976 14.1956
1 16.7578 14.4699 20.8623
1 23.0591 40.6154 19.6173
1 47.2428 40.7378 25.7402
1 3.40411 3.21963 3.38911
1 43.8936 12.0878 48.3604
1 9.87471 4.18275 43.0533
1 46.32 26.9698 26.3535
1 37.2719 45.7686 46.8661
1 27.3151 1.84364 2.32247
1 46.0082 48.6174 21.2667
1 3.17637 46.1639 37.0377
1 9.92019 46.9986 11.2066
1 49.4451 42.7755 30.3673
1 6.41035 25.6989 18.3859
1 19.213 16.2728 18.0547
1 21.9205 39.3095 4.05242
1 39.959 34.7126 11.2292
1 7.29255 18.3761 3.44269
1 46.8647 20.2859 28.872
1 17.4405 9.22684 34.3236
1 2.85795 31.931 46.7496
1 35.4204 23.4253 26.8388
1 1.95528 39.1033 10.901
1 24.4572 15.4402 40.333
1 5.28808 20.8477 33.9792
1 26.706 38.5519 19.4188
1 7.31615 38.8202 40.3808
1 0.994984 47.6492 44.2334
1 30.9369 25.7062 26.4883
1 4.82393 19.8172 20.4016
1 28.8868 32.1759 24.0718
1 47.8317 12.1968 9.83049
1 17.0026 18.7852 39.7995
1 25.2971 12.5759 21.6677
1 42.9054 3.94201 1.79781
1 29.9306 12.7623 43.2437
1 33.2811 49.5398 41.7816
1 44.6837 4.78843 27.4138
1 33.0811 48.0102 27.8676
1 31.7456 25.193 47.4128
1 9.52104 7.8002 30.5653
1 5.49161 36.3529 48.0121
1 44.1753 19.0772 16.2132
1 47.3737 2.37827 24.0021
1 17.7427 7.11696 44.358
1 46.6688 21.8651 22.1587
1 29.2899 19.6778 44.6576
1 2.16123 40.715 0.15345
1 16.8595 25.6973 46.9174
1 49.258 36.9087 25.9337
1 39.5007 16.7618 30.1658
1 45.0488 5.95111 19.584
1 9.51477 0.219777 13.0622
1 0.403079 8.29577 42.0802
1 7.20921 22.271 15.6108
1 0.461562 40.2364 13.1396
1 17.8477 38.3034 23.0359
1 18.3951 19.1916 46.0166
1 6.80178 0.769833 15.9012
1 25.4284 13.2227 16.1778
1 18.5775 7.10866 23.5889
1 11.12 42.5912 22.4183
1 9.12682 15.8917 6.96552
1 5.34292 22.8307 24.2033
1 11.801 23.8868 1.99301
1 18.1068 27.5368 48.889
1 37.8154 17.9808 45.0762
1 10.6216 24.5276 14.3236
1 26.1073 2.95111 37.7462
1 23.7931 37.5418 5.11755
1 0.478321 21.7934 22.7518
1 30.3545 4.78717 47.1918
1 14.3664 7.86883 12.1654
1 6.69262 17.9483 20.2267
1 31.4342 26.1807 44.6861
1 22.6396 12.9242 9.41424
1 43.676 42.6224 48.7985
1 2.24556 32.0016 31.6706
1 14.7547 45.1535 37.5935
1 38.148 15.828 13.5043
1 16.7431 48.5992 5.2391
1 11.1253 27.1814 -0.133744
1 22.5978 12.3045 5.60781
1 17.7629 28.0635 33.4578
1 36.1339 21.6137 31.3193
1 25.8488 21.8136 8.49414
1 46.5277 12.8617 32.6449
1 25.6711 22.904 6.30721
1 15.6917 13.8017 7.57906
1 48.3357 33.3357 39.1713
1 30.0691 17.9043 17.3914
1 7.81833 30.8235 23.7066
1 41.4013 9.4253 34.8697
1 39.1592 14.7338 24.4954
1 28.469 48.5784 35.6205
1 46.4347 39.9999 16.9714
1 28.1951 26.0301 15.9785
1 30.7303 40.3839 0.727353
1 0.0461446 43.3235 12.5504
1 18.1768 31.4738 7.35443
1 41.1187 23.461 34.2646
1 17.1116 33.2301 27.8104
1 39.2394 10.7639 36.0296
1 47.9933 25.7711 46.0722
1 47.5335 40.8228 32.3167
1 17.1745 21.5266 45.3382
1 16.4701 46.716 47.8189
1 37.9357 28.3981 31.6985
1 36.8999 45.0229 19.8171
1 25.7923 0.142813 5.18797
1 36.9875 19.1262 42.6602
1 12.6945 14.2526 19.7243
1 15.6798 19.2865 3.03914
1 39.1954 22.0911 7.71006
1 37.9724 9.43669 7.2238
1 13.8844 1.05734 41.5384
1 39.3188 28.4455 4.06765
1 5.97667 1.56405 20.7656
1 34.1164 41.4672 3.85147
1 5.74598 3.91714 29.8972
1 40.8961 43.3494 15.9127
1 18.795 12.9346 30.038
1 21.4669 34.9435 25.5184
1 18.2551 9.47241 28.9605
1 46.3914 29.6568 25.2638
1 46.5397 10.4293 11.5942
1 16.3923 46.6411 34.1967
1 39.8825 11.6498 47.5068
1 33.4586 17.5994 45.8081
1 47.7037 23.0541 24.5116
1 8.68188 24.2529 30.3684
1 14.9932 31.0068 3.13371
1 35.0745 41.7538 18.7243
1 32.5995 47.9334 19.5313
1 44.8516 23.3525 18.0927
1 12.2572 24.1358 22.842
1 31.0954 44.4616 37.3057
1 41.058 42.0973 33.1667
1 40.3228 36.7218 38.0992
1 34.3729 14.561 37.3338
1 36.2101 23.4107 4.92029
1 34.8343 27.4424 10.6343
1 11.374 13.4749 49.1743
1 42.5286 21.2004 31.0532
1 48.412 42.2365 2.60609
1 41.4516 25.3154 11.1686
1 11.8779 9.3696 6.43871
1 31.2522 15.6826 46.0378
1 11.1906 31.8416 25.1679
1 5.52413 13.6368 31.5367
1 8.25864 8.46162 41.9004
1 33.3225 31.568 18.5602
1 14.0297 3.11572 23.9455
1 45.626 13.7688 40.1093
1 18.1099 46.5396 36.8992
1 49.7963 48.653 19.1482
1 45.6027 8.77104 31.3563
1 11.5325 26.844 21.6869
1 14.0634 19.7248 0.757761
1 48.6414 17.6163 16.0855
1 39.7095 46.7882 22.2385
1 11.8912 -0.123452 1.86447
1 14.6621 38.486 19.933
1 3.9046 41.8583 15.6414
1 34.5876 38.9894 2.80195
1 28.3057 23.1425 9.05523
1 20.3513 39.5853 31.7883
1 47.5614 31.3582 7.41121
1 34.1614 46.1026 33.5269
1 15.5417 44.2882 34.9263
1 49.4496 19.1235 0.177882
1 0.923642 10.8586 19.5783
1 10.3137 1.06471 46.8258
1 14.5006 33.7622 49.5805
1 44.3373 33.7507 16.9956
1 36.5846 41.5688 13.6638
1 45.8762 19.5661 33.6922
1 25.8984 5.94582 45.0196
1 4.6129 30.5818 10.1899
1 43.0949 4.44094 43.148
1 2.00315 32.2042 0.259408
1 47.0771 11.0722 46.9957
1 37.8775 22.0046 25.8334
1 33.0054 44.9139 48.2367
1 18.1781 40.9543 45.952
1 29.3199 43.015 35.7561
1 18.5211 24.1432 1.92281
1 20.0602 11.3956 5.87792
1 36.8403 33.0427 26.1203
1 34.908 46.9057 7.14204
1 22.8827 4.70318 42.3096
1 34.7345 48.7799 34.264
1 6.71916 48.0329 1.61242
1 37.4345 6.32933 30.1061
1 22.7487 43.3264 14.1689
1 13.5908 35.2661 10.5985
1 26.6679 46.4537 45.6826
1 18.7826 3.2768 -0.0548616
1 25.9287 6.77541 40.3193
1 44.5487 34.9252 10.7249
1 41.109 6.80413 22.2368
1 49.4857 33.596 27.4149
1 18.1245 3.35189 25.3842
1 21.6055 21.8366 20.725
1 2.37877 27.8403 34.6921
1 11.3175 25.3088 4.52341
1 37.432 28.8961 38.4651
1 10.9154 6.99282 26.0196
1 3.98287 42.1744 35.2998
1 5.96991 26.3416 32.0639
1 46.9585 43.1811 0.369782
1 10.3558 27.4188 26.5317
1 17.9552 47.1282 19.0349
1 45.939 15.6087 3.36099
1 22.9459 28.697 14.3731
1 14.5337 49.2865 1.11728
1 0.0987755 10.3055 35.0772
1 41.2686 33.4083 37.0802
1 14.9457 48.4283 6.81351
1 43.3339 16.488 19.2305
1 44.8886 30.5169 39.2276
1 25.5075 25.9761 14.0634
1 3.51255 41.7428 19.9685
1 18.7667 20.0507 0.98219
1 18.2589 7.83093 32.3165
1 27.0423 13.9588 4.0197
1 21.5519 35.3742 3.70145
1 16.1293 0.19227 21.899
1 44.0395 23.7385 46.6234
1 44.1119 38.8409 38.6808
1 30.5223 45.6928 42.0246
1 17.9797 28.6968 29.0081
1 8.56357 24.5217 36.2168
1 42.8149 39.1423 23.2716
1 48.5818 44.0936 27.2927
1 19.9866 0.738737 9.10158
1 32.364 21.8199 34.274
1 14.279 36.224 1.11284
1 32.4374 41.0196 5.88449
1 22.1413 23.2346 15.6532
1 17.7672 2.04395 9.98906
1 27.8928 21.7489 43.5063
1 6.8556 35.0445 31.1923
1 8.41031 19.37 17.7965
1 40.5525 37.1 6.92882
1 35.9351 7.2765 0.497449
1 23.6837 25.9317 33.9542
1 39.7548 48.5978 30.2103
1 32.6319 48.9958 46.178
1 43.171 19.8424 36.8163
1 26.598 21.76 4.21233
1 46.0177 3.01391 33.2724
1 16.0165 3.25471 0.503806
1 36.4519 46.5092 41.2235
1 23.5595 43.0772 4.58593
1 21.6178 42.9142 21.0541
1 16.648 37.2591 39.858
1 10.5122 29.3986 22.6495
1 45.5895 31.1893 0.759041
1 9.67349 31.8728 48.8511
1 31.6104 16.0854 32.598
1 38.4457 33.6336 18.1021
1 13.1952 0.610831 6.35229
1 24.3141 35.5314 22.2293
1 49.2849 34.7305 46.4338
1 24.9626 20.2146 18.2219
1 29.4748 1.95999 45.3435
1 41.4176 42.7881 0.564756
1 7.34382 30.8692 27.6946
1 29.3098 20.0732 1.52768
1 22.3987 41.7865 47.4568
1 44.7114 35.5976 49.1502
1 24.9807 36.0365 9.58106
1 0.089945 4.13334 42.76
1 27.1554 2.94324 41.9461
1 37.0123 21.7237 14.0589
1 26.3808 9.74778 5.28766
1 46.8459 1.46967 5.20231
1 10.7037 4.03491 17.5514
1 44.7598 45.1997 11.6712
1 32.4177 3.07775 15.8498
1 12.2989 4.55143 8.56722
1 14.5475 28.5561 3.63205
1 36.204 28.7546 27.7807
1 16.5379 30.1565 37.9293
1 29.1164 31.3254 10.1599
1 17.2641 2.83855 3.35197
1 37.4453 25.8088 21
1 14.1038 22.7283 33.8035
1 48.5602 34.8415 1.85564
1 7.78082 2.60104 47.0321
1 11.4497 31.14 29.4164
1 35.2748 34.1835 37.5077
1 16.611 30.8196 41.4249
1 28.4262 1.59634 25.3673
1 20.7893 12.5957 14.0524
1 -0.18861 45.2423 42.4841
1 37.3523 9.93191 11.4486
1 14.9168 41.8281 12.2749
1 44.5081 22.078 41.5666
1 35.5607 30.2448 8.59778
1 29.5451 21.4135 15.2124
1 5.69637 27.5031 41.4464
1 -0.0413232 14.9762 15.8873
1 47.2659 43.6396 15.5502
1 21.9586 42.5009 10.1064
1 26.3204 33.1481 39.9177
1 45.8747 45.6971 35.2379
1 20.0114 3.25851 45.8653
1 22.728 0.799071 48.9745
1 26.1037 35.7797 16.3659
1 39.0525 36.6113 40.6215
1 12.9095 12.7555 14.729
1 2.08425 32.2511 28.8914
1 15.8289 17.6369 22.4758
1 26.6193 1.14329 45.9318
1 46.034 23.3073 38.3495
1 19.1633 45.1156 47.8719
1 46.398 30.6002 46.2583
1 2.71224 27.6487 43.5289
1 43.6603 8.01583 18.6804
1 14.0164 28.941 44.2826
1 41.6944 22.6168 3.65343
1 33.2942 48.971 24.0841
1 7.65462 43.042 8.50634
1 7.8142 35.7516 16.0813
1 38.6195 32.9464 36.9678
1 0.49844 22.4667 26.3363
1 40.4809 1.8323 30.3935
1 38.5648 0.160398 8.20387
1 27.1334 33.1641 10.7201
1 19.9375 42.5691 28.7775
1 4.88348 15.6791 20.0341
1 3.25296 19.4598 15.7227
1 44.2021 5.60917 47.5336
1 33.5433 32.5271 3.8679
1 0.925022 4.65524 4.14074
1 32.7011 14.3329 12.6729
1 28.4429 23.777 0.706083
1 35.2259 33.0073 6.14752
1 34.8788 40.533 10.4938
1 9.57236 33.3171 37.5422
1 10.4336 9.36376 27.0882
1 25.4878 36.1342 38.2976
1 23.0493 32.0675 16.3113
1 37.2359 29.0919 1.82349
1 31.96 19.0561 33.2267
1 1.28631 0.43353 4.51728
1 26.9033 3.18149 -0.081084
1 48.5789 49.2272 22.0665
1 29.1436 4.46288 25.8883
1 12.5282 41.5518 19.9266
1 12.6154 3.96517 31.4207
1 46.8194 31.5154 41.1561
1 46.9151 46.1958 43.1491
1 14.3633 11.8543 18.7764
1 18.7522 37.1038 31.0535
1 37.8904 16.2858 5.44041
1 1.87314 17.5866 7.22723
1 34.9993 26.0429 24.7619
1 14.11 15.0745 30.672
1 33.4283 48.7468 39.0346
1 1.54606 19.008 23.6242
1 26.7382 45.5967 13.2345
1 17.6747 13.7441 5.7995
1 4.32956 9.26458 5.83222
1 33.2778 22.1563 1.96257
1 12.1433 44.1151 38.3292
1 34.3551 29.4026 3.00759
1 3.1852 16.5801 27.7554
1 18.2734 18.5196 3.51838
1 10.5029 13.2932 35.4038
1 29.6425 38.8861 43.1201
1 6.83383 29.701 4.25129
1 26.8264 47.539 31.6506
1 0.211686 3.36972 34.6125
1 11.8952 48.8578 4.3783
1 36.896 29.1882 18.9659
1 28.2601 32.6008 18.5378
1 38.1746 38.0442 22.7988
1 0.13796 4.40637 30.3893
1 2.98218 2.29579 34.9379
1 49.086 47.6989 28.5594
1 40.3184 12.8527 28.3118
1 0.0559555 25.2517 42.0269
1 3.26923 11.4778 48.1808
1 21.5126 43.7803 43.903
1 8.69696 10.9228 11.8657
1 44.9724 38.0539 44.0891
1 0.849746 16.2261 38.6132
1 21.0467 4.84609 6.23384
1 4.63946 17.084 16.3724
1 16.6276 9.37305 44.9918
1 44.6075 29.6748 22.4579
1 12.8125 11.658 7.56543
1 16.4373 25.6598 32.6628
1 12.4903 19.5057 21.6951
1 34.9611 9.03214 2.1491
1 41.5332 1.15829 15.4876
1 42.2582 22.9625 17.8288
1 9.91301 40.9641 35.4686
1 13.1228 26.3381 44.9562
1 44.3244 37.5353 13.4826
1 4.70802 7.59532 44.2596
1 18.7688 35.9436 18.6674
1 23.9735 33.3717 41.344
1 16.8666 45.0896 44.5184
1 19.458 31.0572 35.7305
1 35.9145 2.65402 48.9178
1 3.73684 39.1977 21.4097
1 32.3011 14.7576 5.1929
1 28.0359 43.9867 18.0061
1 43.168 49.0929 18.6753
1 25.3699 9.61814 2.01386
1 7.11169 16.2765 29.5816
1 29.4119 23.6321 31.4525
1 30.46 12.9884 34.8989
1 37.5984 25.1322 44.5322
1 31.0363 32.5137 16.4191
1 10.0925 23.0578 41.2207
1 1.26677 6.99439 16.3265
1 18.741 26.4387 25.3894
1 18.1296 27.1912 5.94901
1 33.0025 29.0068 13.1634
1 8.60126 49.4832 24.8659
1 44.8235 35.1736 7.79472
1 16.6988 24.8896 42.8042
1 37.5037 46.3142 11.3096
1 37.8838 15.9903 17.6884
1 19.0489 16.2119 21.1885
1 39.0473 4.32644 31.3847
1 20.5348 11.6254 22.462
1 2.60354 26.7922 29.7915
1 19.4439 33.9132 20.4605
1 13.9755 32.6026 44.9424
1 6.6432 20.102 41.9666
1 9.17697 10.1375 23.1857
1 49.1974 7.33534 34.8683
1 5.98209 10.9413 29.247
1 39.3848 7.38129 24.0948
1 12.7894 41.8683 38.4247
1 10.416 41.4796 46.5331
1 24.2277 5.76633 17.4796
1 43.8568 19.4234 19.9503
1 0.67803 32.3935 11.3367
1 37.8522 48.3874 3.77623
1 22.6307 49.7983 22.5268
1 10.5347 47.3516 35.8821
1 40.2197 40.8284 16.4576
1 29.3327 38.0948 30.4879
1 15.7036 7.27104 9.37573
1 11.6409 1.51367 17.0831
1 25.0136 22.0089 2.02744
1 1.53175 32.0801 44.4402
1 32.2318 8.66011 3.2963
1 15.8571 4.97308 37.7091
1 14.5453 32.6786 25.2757
1 1.50692 44.0783 6.26156
1 34.7141 22.4798 35.6313
1 7.00373 12.566 49.3976
1 23.6999 45.7836 12.1978
1 44.3759 26.9339 42.9027
1 27.7556 8.6776 13.3083
1 47.6493 14.6421 13.7314
1 32.048 35.1223 19.9904
1 8.45628 37.476 4.84336
1 40.2498 40.6985 26.7401
1 20.5102 8.71472 30.6491
1 1.63435 43.4393 32.9706
1 47.5068 38.7812 38.2252
1 42.827 42.6064 8.95212
1 31.5417 4.60301 42.3736
1 45.1334 7.44278 40.1652
1 20.7861 45.3208 30.7718
1 48.6624 8.53975 30.8246
1 13.3418 0.486449 15.3764
1 22.0555 44.4721 47.753
1 37.7183 45.2036 27.2252
1 31.7053 17.0703 21.7152
1 7.00222 47.367 23.0816
1 -0.193876 12.6712 41.5424
1 14.483 14.8948 11.2122
1 30.9969 23.8859 22.7671
1 33.6016 5.47881 9.56573
1 27.2543 17.8979 9.73796
1 17.5713 27.8733 36.5228
1 29.9862 44.1189 44.1543
1 7.49319 36.8346 2.60579
1 35.6775 16.6308 23.3451
1 30.3223 32.2434 13.9981
1 47.1084 29.4556 11.0396
1 42.3893 15.5599 21.9129
1 23.9128 15.6347 32.9596
1 45.0122 35.0702 28.2383
1 13.6045 40.6252 36.0516
1 45.7048 16.7364 20.8432
1 10.2271 3.81243 29.8745
1 9.32206 35.8478 32.0381
1 48.6636 7.89806 46.3098
1 39.6047 17.4727 24.2312
1 39.7131 18.0673 27.1834
1 11.7517 44.1016 12.7753
1 28.0957 38.4651 11.2501
1 23.9356 11.8144 46.79
1 46.656 15.2396 23.4095
1 46.6778 19.5933 36.0536
1 22.371 40.6188 8.24433
1 23.1941 41.8843 32.3779
1 20.7902 8.94669 36.5932
1 13.5272 40.4739 44.4603
1 37.1749 22.9032 42.8949
1 33.5104 20.1704 24.0264
1 0.760661 10.0642 7.30596
1 3.64145 47.87 25.7987
1 16.3865 5.80317 15.6313
1 41.6101 43.0243 20.1405
1 42.8553 11.77 2.90028
1 3.9417 49.7332 46.5446
1 44.0887 19.3588 29.3952
1 30.563 41.3711 14.5784
1 14.0346 3.33032 45.4382
1 18.5055 20.7226 7.5209
1 4.71464 24.2103 6.93531
1 45.878 5.79601 42.4155
1 0.714261 42.4361 10.1567
1 47.7966 46.8312 17.8554
1 37.5691 19.1872 15.7709
1 41.1445 25.9621 17.2354
1 33.7283 39.3071 41.1109
1 32.9651 8.00617 45.1553
1 16.12 9.63649 14.817
1 9.48002 31.6875 14.4875
1 31.9209 48.8782 0.64204
1 42.7194 16.2728 45.0644
1 24.4534 34.5509 35.7627
1 49.3337 40.3115 9.15463
1 26.3762 1.34426 18.8474
1 14.3751 38.8399 39.6518
1 32.9447 45.3878 20.3305
1 18.4236 17.6718 32.1145
1 8.67294 7.20266 8.79858
1 21.7165 6.86857 34.8077
1 47.7651 39.9635 11.8162
1 1.03142 36.0846 16.6263
1 30.4094 42.9851 30.9977
1 29.828 5.5457 19.0785
1 39.3708 49.2312 46.9632
1 1.02119 30.6865 39.9331
1 3.75949 17.8513 44.2063
1 8.97708 24.9941 5.52224
1 0.496286 37.4033 28.8711
1 0.608532 14.2589 33.4432
1 9.08262 48.5458 34.0166
1 35.883 16.4364 46.1954
1 17.2492 33.0257 22.9629
1 10.5213 11.1754 47.8203
1 20.177 19.3511 18.0858
1 10.9582 33.6494 31.305
1 37.4076 14.3392 42.4821
1 32.123 35.247 46.6507
1 26.0037 11.4515 42.0676
1 8.87556 16.9541 14.648
1 26.3036 13.1612 26.9484
1 48.1769 14.3722 40.1181
1 45.3106 2.2099 2.27855
1 2.813 15.4928 18.1822
1 39.1694 6.29618 47.6066
1 46.8273 40.2393 -0.0160238
1 35.3786 2.74633 2.95729
1 21.889 25.9281 22.4844
1 23.7869 34.0928 30.022
1 16.0872 14.4138 27.1846
1 24.3374 9.37443 9.70176
1 44.3641 8.29163 14.1389
1 46.8945 15.245 33.8745
1 23.944 31.7106 33.7996
1 39.2724 1.98964 28.1601
1 45.6254 30.3308 36.2792
1 17.1681 30.2526 48.421
1 38.6492 10.6773 2.37936
1 30.9803 7.84999 25.9156
1 27.8383 29.5667 20.3211
1 30.1011 30.6991 19.4314
1 44.6091 29.0312 10.6427
1 17.7623 13.362 2.43291
1 46.6343 40.324 3.90112
1 17.0013 17.1028 5.68828
1 1.64364 40.7224 28.8209
1 37.1193 39.2094 10.3144
1 40.3468 32.8482 8.16562
1 25.4892 22.7955 36.5893
1 4.4516 14.9911 9.20296
1 3.16047 24.7806 21.8781
1 45.228 34.0542 39.7091
1 29.5178 43.2279 28.4821
1 13.0946 30.2386 46.315
1 12.8384 25.7403 15.3724
1 27.2689 12.5945 24.3419
1 45.0042 39.3836 10.6035
1 26.8712 45.9503 48.8603
1 19.7017 42.8185 6.23317
1 18.9851 20.5824 4.77077
1 27.8189 46.2683 25.3575
1 25.947 31.2224 48.8163
1 3.68501 48.8217 28.8699
1 27.8204 7.00803 20.7334
1 28.6503 23.2519 13.4765
1 24.5514 32.1369 46.6434
1 42.0849 21.5633 42.3537
1 41.8348 28.3723 1.09861
1 38.0443 6.11575 34.3619
1 13.959 22.9078 14.7371
1 27.9449 18.7934 34.0687
1 49.0671 12.0987 32.8866
1 17.5188 17.251 44.5865
1 3.74317 1.43245 44.2077
1 14.0302 5.64737 22.9499
1 31.7741 17.9766 2.63588
1 24.8182 3.5394 46.0485
1 19.1897 5.30611 47.7447
1 31.8845 25.4531 2.55106
1 14.4831 18.7688 28.3463
1 34.0248 49.417 21.5505
1 6.59918 37.9023 27.0083
1 12.5639 8.51461 33.6245
1 42.4121 38.7385 9.64096
1 6.36263 16.6465 44.6801
1 15.6949 48.0418 15.1067
1 47.3131 3.93466 26.2097
1 22.905 35.6485 19.4159
1 0.225216 11.0512 30.7266
1 49.1035 3.27478 37.2346
1 4.78815 30.604 31.7498
1 30.2879 32.4123 43.328
1 2.66453 36.8697 30.438
1 49.3078 36.7185 18.717
1 26.283 11.5578 10.0108
1 13.0798 30.3143 23.1814
1 21.5006 6.94527 48.4641
1 49.295 1.43519 46.4013
1 1.96023 23.0613 37.1156
1 16.9276 25.9937 14.336
1 18.6418 10.9103 3.59217
1 25.6295 25.9809 29.7074
1 40.0909 49.2306 25.2631
1 9.88663 33.61 43.3659
1 21.2145 38.3729 11.4566
1 23.0819 46.4672 45.6527
1 43.4264 46.8208 9.9892
1 10.7377 42.7887 42.5311
1 19.0939 16.1649 49.323
1 11.8819 23.9366 30.4398
1 45.7625 42.9148 37.9247
1 46.6798 15.6925 28.3457
1 29.256 48.3192 42.893
1 37.2477 36.5812 33.9321
1 10.9282 8.73814 1.88367
1 19.3964 47.8102 12.4567
1 30.4178 2.06306 36.3848
1 22.9222 30.5153 37.7146
1 49.594 1.97139 21.3839
1 14.4607 9.90593 27.9488
1 31.5493 33.9605 34.8659
1 36.9831 29.8981 24.1531
1 9.97129 16.0639 26.5346
1 22.3379 19.1039 6.96746
1 9.61336 40.3538 23.7582
1 11.9455 20.2321 5.22883
1 29.401 37.1795 3.12882
1 30.9145 40.1859 31.7825
1 36.1695 42.8525 31.3267
1 25.087 15.8058 26.6469
1 44.3607 39.4133 29.5758
1 5.99443 29.6505 16.7705
1 42.4106 19.2789 26.9595
1 34.1009 36.7503 36.8936
1 38.362 26.3727 8.57922
1 2.79644 44.0816 44.7251
1 6.52959 1.3369 26.1728
1 10.3579 46.3198 24.7542
1 17.5751 41.136 43.0272
1 16.1679 1.92604 40.4342
1 49.3108 26.1307 12.4305
1 11.227 4.23642 37.8591
1 45.6798 13.4929 14.9182
1 47.5952 20.9235 46.5437
1 38.5223 12.1427 6.82052
1 13.7696 41.1345 7.64934
1 11.7497 49.767 44.2774
1 23.338 26.3956 25.1477
1 6.03237 10.312 45.3005
1 22.3481 47.0321 3.6967
1 31.4905 28.1899 20.4448
1 19.4148 9.51564 26.3966
1 9.58482 1.28447 33.4083
1 30.4838 11.205 21.3644
1 10.6247 26.8057 35.9081
1 30.6745 19.7446 24.5925
1 45.7797 47.5304 49.4819
1 26.3714 2.58361 23.298
1 38.7224 29.0556 34.4416
1 4.59382 32.7422 5.5232
1 1.9923 33.932 36.1675
1 17.8468 3.78087 44.0913
1 6.46439 30.3932 44.7938
1 34.1525 49.0367 11.0638
1 17.2815 12.2679 49.5235
1 36.5648 9.8542 26.8353
1 20.5158 40.6087 21.6625
1 21.5756 24.0906 44.8385
1 46.6545 37.3553 17.9414
1 34.1188 9.08092 16.0356
1 19.0964 46.1292 16.8784
1 13.6424 35.5235 23.2923
1 30.7735 48.5496 38.5254
1 19.911 43.7493 18.1525
1 34.0325 41.9793 42.1306
1 46.9526 4.74214 3.59792
1 10.6858 42.0858 9.78062
1 47.2632 16.187 18.6269
1 32.9095 49.0987 7.22326
1 42.134 38.5421 35.2641