4096
 Atoms. Timestep: 820
1 1.37669 35.1889 18.9726
1 24.3913 21.6683 12.5284
1 32.11 0.342686 25.3755
1 24.6926 41.3767 6.42123
1 0.731022 13.0143 23.3216
1 16.2434 45.8735 32.4043
1 27.4502 37.2295 5.76285
1 35.0617 43.919 16.3374
1 2.29496 1.17852 41.198
1 37.9515 1.64085 25.8056
1 24.9427 12.6767 6.61555
1 38.5412 46.8704 37.6707
1 17.9514 44.0523 7.46088
1 1.31545 15.0197 27.9768
1 35.2057 28.4559 6.18977
1 24.1977 6.85218 20.088
1 38.9939 12.4686 38.2857
1 2.41045 23.9785 4.1521
1 14.2344 7.72152 21.0723
1 8.35187 24.4369 11.4709
1 37.5851 13.7267 7.42719
1 14.1213 28.3785 15.152
1 4.25316 36.3196 39.6287
1 1.99343 17.551 20.9799
1 18.156 9.36191 43.7414
1 1.85688 32.9114 12.8423
1 6.43675 8.92374 18.255
1 6.73838 13.5792 19.5582
1 7.37061 14.6022 32.3537
1 2.04605 46.0948 48.496
1 35.2268 42.4466 42.6464
1 4.80705 6.39199 18.7021
1 35.0356 0.937837 7.84748
1 9.59491 23.5138 16.204
1 29.1361 43.2378 45.7883
1 8.87237 38.448 19.6893
1 12.4609 14.851 0.629571
1 23.4292 32.2365 43.7016
1 3.52905 31.8191 10.1316
1 38.6485 12.82 10.2097
1 29.7658 36.3242 28.5871
1 40.3558 28.2008 20.6237
1 6.17995 39.2799 18.5808
1 35.9088 35.1484 47.099
1 0.570199 10.3091 12.7937
1 17.0953 29.4291 34.9328
1 39.8589 25.5623 25.8513
1 5.09802 34.2201 12.7998
1 9.73468 0.137751 29.5141
1 19.2891 36.9163 7.09045
1 9.96885 1.61408 22.845
1 27.026 16.9869 48.815
1 14.3528 15.6243 35.6765
1 7.23631 24.0407 40.4861
1 37.1891 19.9409 2.74412
1 36.8923 27.2501 28.2832
1 26.2601 17.7608 19.0111
1 44.1886 0.160467 36.4201
1 32.0586 6.18477 47.0651
1 20.5766 26.7489 7.91469
1 39.3841 30.4393 26.6319
1 11.0397 40.8617 35.0857
1 45.2155 45.757 48.371
1 9.20106 15.9103 45.2214
1 47.3448 2.44938 5.80442
1 1.37819 1.29316 13.5742
1 37.5641 7.75326 42.7667
1 41.6164 4.93761 21.8072
1 18.0859 20.9437 41.0439
1 40.189 17.4253 3.15048
1 27.8658 4.5752 28.3409
1 27.3405 22.0732 24.9249
1 17.9674 48.53 34.9487
1 31.8493 38.0816 4.19469
1 36.3542 49.3198 22.0493
1 14.2736 47.9635 32.7328
1 45.4046 26.5218 2.02572
1 22.5675 31.4528 28.0834
1 23.8746 17.7996 15.2457
1 47.2662 31.0156 4.09518
1 31.9591 8.40723 44.4673
1 33.2478 44.7156 28.6969
1 16.3945 8.21222 12.6887
1 3.60651 45.5527 8.92784
1 27.8538 12.4087 17.9847
1 26.1131 48.6554 39.841
1 18.3956 39.8167 12.8162
1 9.65056 34.1997 3.73681
1 0.0634225 16.8723 13.068
1 33.9943 35.7815 36.2452
1 22.4985 3.80737 26.4682
1 10.1236 31.7128 16.829
1 40.1833 49.6788 3.79442
1 26.2691 4.73792 21.0264
1 16.5972 15.2805 27.4736
1 48.1821 12.9438 19.0628
1 16.755 1.02261 38.858
1 20.1538 2.91804 49.7415
1 23.8058 4.20288 1.41038
1 8.53041 35.7746 40.6935
1 33.0799 27.2898 24.6996
1 28.2167 14.5974 49.2675
1 21.1763 29.1471 6.68198
1 15.0341 33.8349 20.7739
1 10.2082 2.81213 13.7432
1 41.8616 31.6548 18.203
1 45.9076 17.2343 7.03278
1 7.47632 5.89257 4.60824
1 37.3984 11.3454 40.1949
1 11.4554 44.2684 42.9525
1 32.5479 36.9066 22.9858
1 14.1763 39.1731 25.1675
1 30.0185 32.5266 27.7576
1 2.90895 36.0825 43.8031
1 30.5674 25.255 8.6932
1 27.2348 27.5084 7.75144
1 22.0967 26.9106 38.1258
1 39.8564 3.41501 36.796
1 45.6642 22.5088 29.5478
1 17.7246 1.33932 16.3714
1 13.4953 23.5875 48.6521
1 37.8645 7.45607 17.0954
1 41.2139 11.1357 37.9997
1 21.6986 34.4766 5.10417
1 12.3571 0.667345 29.0664
1 41.5454 21.8043 22.3339
1 38.0603 39.6693 27.7794
1 5.19001 14.3603 9.49633
1 30.9471 6.44287 38.2749
1 41.191 8.31124 3.75141
1 14.4424 36.457 21.7773
1 34.2976 30.7188 21.6836
1 17.7734 4.44446 3.65464
1 22.9261 35.4893 8.75734
1 1.15753 11.802 30.8317
1 0.557423 35.5608 12.8875
1 0.127026 20.7057 4.12451
1 15.8507 41.0891 22.7531
1 35.9961 5.18645 28.3701
1 1.70354 35.4947 15.9087
1 22.9995 13.9182 39.6099
1 34.2214 34.954 22.8282
1 18.9685 13.0473 39.1468
1 32.0845 49.704 11.5813
1 0.603052 30.5649 19.6231
1 0.856419 44.1455 18.5627
1 4.19287 13.7718 3.84198
1 40.666 47.4229 43.2806
1 16.2438 17.1426 49.4099
1 48.6798 24.775 4.56852
1 11.9463 18.2751 7.77237
1 33.8343 2.80001 18.3073
1 15.3538 18.8386 23.5799
1 6.40777 48.5882 29.8685
1 4.90804 30.5372 20.6092
1 47.8849 4.71046 17.5466
1 37.2831 7.29871 34.3522
1 21.6778 6.25562 21.0156
1 33.2992 46.2653 0.585007
1 36.1792 15.0022 0.707725
1 31.9261 49.3697 42.0509
1 14.8124 7.29742 6.66262
1 47.9492 13.5291 35.7981
1 25.247 18.0545 8.29731
1 41.7551 1.83006 4.76763
1 1.34677 45.3755 10.7903
1 33.7156 13.0673 11.511
1 38.5746 35.1263 26.2398
1 36.3949 40.8499 8.48587
1 20.6552 13.4662 43.6773
1 37.5218 8.27504 21.9529
1 35.3122 33.7461 44.7906
1 6.90447 7.19496 24.7797
1 26.1539 26.5372 36.6461
1 35.4721 33.575 13.7983
1 22.42 40.7178 0.151027
1 9.0711 9.6231 2.30461
1 23.9898 3.50984 32.1115
1 17.9678 32.1434 33.8026
1 10.0244 33.3899 37.3496
1 44.9406 23.2981 26.654
1 12.7915 12.5968 5.92048
1 30.8649 40.2294 26.5027
1 15.8482 22.7251 46.6605
1 13.4532 2.34666 33.1755
1 33.2017 27.637 30.6234
1 25.3648 12.3281 33.4499
1 9.05662 32.3687 14.4242
1 29.5381 1.51984 38.5151
1 12.0499 0.8317 6.47905
1 0.426013 34.3857 38.7344
1 14.8323 32.8694 36.5384
1 28.2103 20.5875 40.5722
1 6.78319 44.157 3.17231
1 47.5274 6.00718 22.218
1 29.9952 1.52691 41.5113
1 49.2121 8.19284 7.35551
1 36.5222 25.4111 15.8245
1 30.8655 22.9918 24.9428
1 5.35111 13.0333 24.5028
1 23.1029 13.3106 21.361
1 13.3155 15.0477 4.27556
1 6.75947 17.3189 15.2932
1 3.33151 7.64103 25.2187
1 42.0277 9.14702 0.123337
1 17.1778 41.9233 11.1236
1 17.3229 18.7348 9.43888
1 44.2131 44.839 6.46764
1 31.2581 4.11925 14.2107
1 23.4781 22.0793 27.0487
1 39.4657 44.489 28.3411
1 42.9351 46.2965 21.1356
1 32.4832 22.1997 41.8562
1 5.77613 47.2628 45.1178
1 23.4334 34.5617 15.1455
1 48.5721 9.3069 22.9518
1 13.6618 33.6055 27.867
1 26.9294 39.211 19.696
1 5.73598 6.96917 0.725687
1 48.014 8.48283 3.39601
1 21.6635 40.6627 19.2981
1 8.18548 41.8212 2.41141
1 31.5302 9.70386 2.74685
1 12.7061 8.65205 1.78602
1 34.4098 27.8664 14.3725
1 14.7724 25.4335 11.1273
1 30.2622 24.8895 36.8816
1 0.526712 16.0565 17.3029
1 22.2369 8.50715 2.20019
1 26.7306 39.8419 1.13731
1 21.403 27.2885 2.24753
1 28.8015 39.8682 13.8302
1 20.5565 33.1583 11.8672
1 24.6335 3.27584 24.4327
1 31.8792 17.4207 34.8345
1 27.5913 38.1982 16.0804
1 13.0186 19.3615 34.0858
1 2.91463 5.59643 5.74452
1 0.337185 27.91 7.28782
1 46.8484 31.127 43.5543
1 38.1299 18.637 11.2689
1 20.3209 41.2504 40.2823
1 28.3257 21.2532 34.3555
1 47.4335 13.6454 11.3299
1 11.6911 43.3599 46.7677
1 7.08543 17.9926 25.3504
1 18.9951 34.2358 22.8619
1 17.3105 30.9652 44.1981
1 38.0372 48.9839 5.64826
1 23.9581 7.13586 24.3726
1 41.7548 40.1301 49.3132
1 19.6027 21.4395 4.65766
1 38.1073 47.4573 20.1943
1 30.1998 14.5236 42.6353
1 9.61958 13.7095 15.8501
1 10.8301 44.0506 49.3662
1 42.446 13.5906 24.8335
1 1.82969 12.3826 13.2722
1 41.6134 26.5915 44.7936
1 1.62108 46.8417 40.0066
1 17.6324 9.87321 21.5693
1 14.0207 16.6734 1.61475
1 29.6864 3.10951 32.8316
1 47.5807 10.8317 46.837
1 2.86111 46.5737 15.5187
1 7.98912 0.335613 15.7252
1 21.8685 18.088 13.953
1 20.0578 35.6583 41.5012
1 14.1926 48.1385 3.80898
1 40.8115 28.9203 33.0042
1 9.35155 39.886 23.1827
1 35.5169 23.3043 25.7863
1 45.2438 42.5137 5.77246
1 7.9736 16.5808 5.3509
1 16.8668 31.3395 1.09512
1 3.67954 26.3543 3.57896
1 0.948779 43.7928 35.86
1 30.9633 21.5644 34.1739
1 32.0558 45.3996 44.2063
1 5.71165 44.7375 43.8859
1 25.4579 8.4503 49.1383
1 12.9995 19.9755 16.1105
1 43.6123 8.46244 45.7463
1 12.5641 22.643 25.8536
1 24.0836 0.755649 15.3122
1 11.0602 20.7279 12.4418
1 11.1627 11.7875 3.89215
1 43.2115 43.9072 27.0121
1 3.62237 27.2567 18.1079
1 31.3335 26.2892 27.161
1 42.7566 17.6492 41.0195
1 3.80999 26.7652 0.172905
1 41.4031 21.0561 34.6813
1 8.8431 40.7701 42.4073
1 38.5061 16.2947 40.3867
1 41.0427 29.222 48.7274
1 42.1134 11.7838 11.9576
1 31.2244 24.6862 40.9128
1 38.0557 15.2955 22.5269
1 28.1073 8.79458 40.3205
1 6.36573 36.9018 9.5698
1 13.8277 37.0505 8.42238
1 25.1612 44.1544 15.9134
1 18.7417 6.71873 26.0235
1 0.0762007 5.45128 42.6769
1 39.0176 15.9642 7.622
1 10.7955 10.4974 13.5737
1 47.8332 9.07433 18.7953
1 3.30034 6.11248 15.9157
1 17.323 24.7964 39.0306
1 5.65848 35.0594 29.5308
1 40.8762 13.1546 1.68218
1 7.80081 44.8671 37.7572
1 42.5627 43.1446 8.30357
1 44.1266 31.8637 27.3411
1 43.5348 34.897 0.633667
1 31.9673 6.51263 0.0116591
1 0.72633 16.256 10.0344
1 40.4875 16.1246 37.9155
1 17.5418 46.9155 24.4315
1 47.6377 22.2159 17.1396
1 35.8487 24.1311 4.86129
1 40.378 28.1863 37.4693
1 5.30121 43.945 25.9487
1 9.66203 1.16736 33.4764
1 49.3102 27.7126 38.4996
1 3.36869 37.4391 35.4578
1 5.04404 15.551 41.7639
1 40.2917 14.5441 14.3245
1 49.6317 6.09649 49.1443
1 36.7612 31.0817 18.5292
1 24.6958 13.4416 12.6792
1 15.5924 38.9487 20.7612
1 30.802 44.4644 27.0682
1 41.0721 18.5495 7.82305
1 32.0167 40.8179 7.71769
1 42.9621 39.7836 33.5779
1 48.7885 49.6466 48.0618
1 4.85354 42.5346 32.3511
1 3.39688 0.611456 35.3364
1 13.9613 49.5793 25.6687
1 43.9921 21.7866 34.4614
1 1.17049 27.5809 46.2728
1 47.4557 1.22247 34.7922
1 39.2887 17.7063 36.0363
1 6.10209 16.6373 10.9166
1 49.651 8.8098 27.5188
1 43.7659 7.56942 38.6919
1 32.2618 27.0078 34.3768
1 30.6223 22.1744 10.3351
1 19.9207 8.66361 11.5512
1 37.2868 15.7036 4.75946
1 47.1174 30.9368 8.29272
1 18.4268 21.3247 43.8242
1 2.36815 32.4745 38.5964
1 44.6191 26.4065 32.7937
1 2.84525 9.52548 36.2567
1 5.54821 7.4612 9.17649
1 49.6542 6.79196 23.6418
1 18.4036 2.06375 24.8459
1 15.6508 21.3714 19.3932
1 2.35311 41.5163 32.3904
1 25.0471 5.40002 3.6786
1 12.805 19.9772 43.6907
1 44.1321 38.4414 24.1971
1 17.6688 27.4046 38.8515
1 15.8299 10.8509 13.2172
1 34.8231 13.404 19.1106
1 14.1976 14.4317 22.293
1 49.6134 20.4627 24.2068
1 48.1453 3.6231 15.0603
1 40.1288 12.3912 45.6876
1 15.3165 48.2634 17.3611
1 25.5957 9.26616 43.1209
1 46.8015 40.7987 41.9231
1 38.597 35.1083 19.9021
1 10.0606 38.922 13.769
1 38.0129 45.6526 48.7659
1 16.572 13.6499 8.5861
1 11.2382 12.4067 42.7678
1 8.52532 17.6965 27.4714
1 3.21618 43.8216 44.8488
1 1.5379 41.19 34.6617
1 0.941724 3.88545 14.3084
1 31.4474 39.4932 49.3733
1 12.4492 44.7449 38.3781
1 12.2527 21.79 5.19942
1 38.9803 14.1051 27.4818
1 16.013 8.96527 32.7962
1 29.1652 46.7241 10.6874
1 7.86465 10.9059 47.1532
1 13.8081 15.7814 17.4046
1 4.84469 28.0936 23.8424
1 45.7539 27.6049 27.4377
1 2.52476 1.44171 43.7383
1 23.0006 2.52197 36.9648
1 23.4992 38.3459 33.3665
1 20.7688 22.9972 0.864965
1 43.6969 22.2754 3.86793
1 37.1956 13.2456 43.0728
1 42.7444 35.3682 46.2376
1 10.1372 15.4124 27.2593
1 24.2511 1.92998 29.1277
1 14.7622 28.2038 49.4447
1 3.73706 46.3438 1.20586
1 8.74021 22.2354 38.296
1 35.8989 13.8625 26.6493
1 37.4833 41.7093 0.308314
1 16.9574 18.7363 14.3609
1 20.4908 23.5527 36.7343
1 19.84 26.7596 12.6756
1 7.05244 0.358554 43.4116
1 17.7386 41.5645 4.59349
1 13.5181 41.9724 35.2279
1 37.2737 47.8484 26.7063
1 15.9763 6.95042 34.8959
1 30.2928 34.6447 23.4271
1 13.0757 23.2312 38.6666
1 6.46733 38.0709 1.83546
1 48.3638 13.6237 47.3937
1 11.6958 49.3541 22.2545
1 35.2088 7.93809 32.5641
1 25.5722 14.4357 27.6345
1 0.262661 4.58513 31.0998
1 20.5081 24.4711 18.9214
1 30.1674 2.98426 2.63991
1 9.86575 8.2731 45.293
1 8.02147 31.1571 30.0676
1 7.64902 40.2576 26.5784
1 2.55942 18.6259 25.7866
1 26.8077 10.1766 27.1202
1 32.9917 5.01512 26.0025
1 28.2741 37.4001 34.9896
1 46.3772 33.4591 7.07995
1 39.822 16.2215 12.1721
1 9.08782 46.0658 48.9706
1 23.4337 25.0388 22.0213
1 36.5959 35.8182 22.2294
1 29.4827 6.11927 26.8211
1 12.8063 23.3727 22.3729
1 47.9886 42.4242 30.5971
1 34.0043 10.961 5.03006
1 49.0144 4.40496 1.44155
1 24.55 11.6707 44.7469
1 1.07979 42.2111 39.3571
1 35.5448 13.9271 29.6339
1 1.42985 31.3046 24.8971
1 4.54961 35.2017 10.1923
1 23.2436 7.4974 4.33814
1 35.7762 29.8268 15.8625
1 47.2266 0.869626 17.7839
1 24.4254 35.8215 40.8107
1 10.3601 32.4039 30.0059
1 12.5 9.85105 38.2058
1 11.7367 40.6116 28.0782
1 34.0023 9.37402 20.3657
1 21.4324 31.0823 19.6408
1 13.5754 2.6993 16.0051
1 5.86815 10.187 8.13329
1 43.4746 25.9526 19.2226
1 45.2515 36.6518 40.4924
1 1.45339 22.3574 37.6179
1 5.29843 16.8785 6.17467
1 11.1575 5.31443 34.3355
1 18.4793 12.3707 15.5955
1 28.7506 49.3547 34.2035
1 20.0944 14.1285 19.5073
1 4.98708 1.85812 5.44437
1 20.1536 46.6149 11.9711
1 44.0174 32.3527 5.37453
1 39.1565 33.8238 32.1705
1 25.4128 42.1452 47.5154
1 8.5466 30.2906 2.11102
1 26.9673 19.7148 1.65612
1 24.6405 19.0093 28.629
1 42.1773 15.9957 49.7272
1 8.37801 29.5668 17.172
1 39.6721 0.0250336 33.6339
1 2.10328 44.0627 15.1737
1 4.69336 6.90041 37.8303
1 31.8905 12.6126 49.1057
1 0.444646 26.5187 21.2732
1 34.5463 6.94177 14.1135
1 6.11291 4.4281 42.9143
1 4.10657 5.00944 34.1146
1 21.7901 29.2576 40.7738
1 44.6966 40.8761 28.6384
1 13.3245 11.7948 45.811
1 28.5738 43.7617 20.676
1 46.532 34.6718 38.1041
1 9.54996 37.881 24.9987
1 15.4794 20.0687 34.0939
1 3.26447 35.5467 20.85
1 27.8857 5.44757 49.3127
1 18.6805 28.4817 43.7374
1 10.8062 28.4689 30.2581
1 13.6212 45.7381 35.9833
1 4.66904 43.8559 40.0192
1 48.8608 10.7112 33.5269
1 40.953 48.9665 45.3409
1 28.9328 47.1238 27.2812
1 7.01387 38.8654 14.0663
1 14.1161 14.8764 7.77388
1 19.3593 41.0612 32.1638
1 27.5805 36.5755 20.2374
1 4.14333 32.2414 47.2518
1 6.24671 38.3356 48.92
1 2.38186 5.16443 48.9762
1 13.8578 48.3495 42.7528
1 17.7839 35.8238 26.525
1 19.2083 47.0056 14.7274
1 15.4431 48.2213 35.3044
1 45.835 14.845 48.0667
1 9.13278 42.5932 34.0902
1 41.6227 15.6769 30.0231
1 46.8344 11.0119 43.734
1 17.1806 23.6388 43.9059
1 16.7711 43.8523 30.4888
1 41.5197 8.62633 43.8613
1 5.16487 1.62255 0.161222
1 40.3869 28.8198 46.0199
1 21.1429 9.61691 18.9797
1 41.939 30.0479 20.8315
1 18.4984 17.9129 48.1456
1 5.53736 7.23181 30.1886
1 35.3078 37.5604 8.15137
1 23.8029 32.6543 9.49341
1 42.664 17.7367 25.5928
1 43.7491 11.5835 42.0267
1 37.0612 17.4077 8.95886
1 37.3461 40.9281 23.4333
1 25.4796 36.9428 2.41998
1 30.4301 27.865 31.7631
1 20.1338 43.6302 44.1237
1 44.0179 22.187 8.62169
1 38.036 41.975 6.81628
1 33.7635 6.59184 41.1375
1 45.2393 41.8049 39.8008
1 26.6811 18.4221 21.4346
1 6.87425 5.03527 26.9957
1 41.1045 34.7474 42.5356
1 1.89027 7.51501 37.8444
1 7.95634 44.3779 23.225
1 31.6951 3.75293 6.99901
1 6.98014 7.79614 27.9222
1 21.448 30.8693 31.593
1 38.5986 26.7676 3.36926
1 49.4332 13.2369 33.5996
1 48.2262 13.9541 31.1509
1 5.93282 41.3405 24.6546
1 36.8982 16.4389 30.299
1 27.3561 0.984229 26.1747
1 4.24371 25.6027 44.9156
1 8.99701 27.5542 10.2639
1 14.3646 45.2124 21.7256
1 4.28507 48.5642 23.8359
1 34.8938 1.9767 12.8382
1 3.43409 11.4575 6.5614
1 1.47778 33.2506 3.92339
1 8.03134 6.19522 42.7962
1 33.2396 0.686054 48.3773
1 45.3443 18.1043 49.1515
1 37.8536 26.581 43.7945
1 37.1013 27.5307 23.909
1 39.9857 34.5923 17.3595
1 5.79896 30.2653 49.128
1 45.7748 31.6284 11.0312
1 22.3159 45.8433 40.7001
1 5.48218 3.81842 17.7016
1 31.3716 17.8469 32.2881
1 46.4288 5.51515 28.0956
1 26.5236 16.6486 46.1533
1 18.7084 47.2782 32.8317
1 9.61703 29.9282 23.8044
1 0.760451 2.58117 24.6077
1 34.2215 34.7694 16.1525
1 8.78861 3.32227 39.7693
1 7.26663 34.3567 2.47508
1 45.6698 6.32422 45.1445
1 41.8297 49.0468 37.1113
1 44.6634 45.334 1.62435
1 35.5536 5.03617 3.32913
1 11.5528 20.9162 1.42519
1 49.3114 35.259 30.6421
1 5.72165 22.5912 16.0062
1 22.391 45.9738 6.49922
1 7.11212 39.7115 40.3681
1 15.4993 47.5744 39.5362
1 26.7811 10.8631 14.8541
1 15.958 3.70354 39.9972
1 6.15062 27.2451 11.0149
1 6.00217 4.43645 2.49129
1 17.1157 26.4465 44.8747
1 32.5 33.6697 44.7516
1 35.5938 23.0355 15.708
1 16.4571 40.0877 9.01845
1 47.4835 15.1429 24.416
1 48.2284 44.8312 25.7952
1 17.8205 33.1426 26.9582
1 46.2299 11.2742 9.96826
1 40.9202 22.3863 17.803
1 29.6269 25.2277 24.9752
1 13.5604 18.7368 9.8
1 13.7476 47.755 47.0597
1 16.5011 47.9269 47.2861
1 38.631 44.4169 11.9546
1 15.1273 27.0057 20.94
1 34.6469 1.58423 22.8256
1 14.6836 47.6592 1.30515
1 41.3999 31.6262 36.071
1 12.172 19.5328 39.9535
1 28.3276 34.2335 36.6734
1 0.742978 13.8709 16.2708
1 38.0352 7.81641 49.355
1 15.6971 36.2567 43.1973
1 18.7129 36.8822 10.7568
1 28.6436 6.08496 10.7042
1 47.7515 11.4709 39.6604
1 5.29662 48.5976 27.3148
1 18.7301 31.9884 28.9736
1 11.5831 48.0149 4.33503
1 29.5733 10.7027 4.30079
1 17.7899 48.4174 45.0895
1 34.8612 3.52196 32.9723
1 10.1711 40.2038 30.4555
1 47.0565 3.89245 23.7584
1 31.7877 26.3055 4.6885
1 1.08059 10.5709 43.785
1 41.8346 26.4916 49.2515
1 33.4127 49.4223 16.2833
1 4.11911 43.7348 28.2471
1 19.875 4.50013 28.9641
1 18.708 18.0706 1.80392
1 10.5693 1.00935 15.8159
1 41.2756 2.65586 48.0666
1 48.5719 47.677 46.3069
1 24.8891 22.3407 9.97635
1 0.567731 43.351 31.5537
1 45.1341 48.6019 17.6925
1 9.92844 27.98 49.0848
1 2.38991 43.6268 47.318
1 2.24056 17.6432 15.6047
1 42.4918 25.7569 40.8685
1 9.0076 0.152161 27.0291
1 4.22351 0.951251 13.2308
1 49.5707 3.57879 9.19507
1 27.9472 31.7111 39.6173
1 4.32004 1.28413 27.2154
1 45.8444 19.3281 9.1513
1 19.6628 39.6206 47.5053
1 40.4739 20.3961 5.77771
1 10.1909 49.1063 47.2522
1 5.48046 18.9127 18.822
1 24.2529 14.6311 48.5305
1 33.5943 22.4672 37.5481
1 40.9131 10.2346 22.3446
1 7.50026 37.1144 36.8205
1 37.0958 5.0989 23.5927
1 4.26246 11.2493 34.3109
1 18.6359 41.545 24.1655
1 35.1252 37.0965 27.0564
1 15.1719 17.6411 18.7975
1 2.19512 10.6487 40.5571
1 0.368466 15.1314 1.42085
1 6.05285 27.3275 30.7704
1 34.4824 42.2235 38.478
1 25.9949 36.7756 28.1429
1 13.6418 42.7306 6.5343
1 27.734 4.12629 35.1325
1 1.97335 44.5502 41.3358
1 25.7846 4.84594 33.4879
1 23.454 36.6857 45.0127
1 10.7024 15.1817 3.86691
1 13.4379 8.32867 40.2109
1 9.82823 47.4081 10.28
1 36.1176 30.5606 33.6391
1 17.1954 17.9197 33.0703
1 25.4125 42.3039 22.986
1 26.3323 32.4364 30.877
1 12.928 41.09 22.93
1 19.829 16.0972 11.2262
1 16.7241 11.9999 0.905163
1 48.0224 40.2013 19.0516
1 42.8313 27.471 17.0045
1 8.81902 24.0967 28.0415
1 2.29384 33.3591 1.36837
1 47.545 20.6448 40.2073
1 0.328089 7.58311 17.2381
1 25.9388 44.2584 43.07
1 22.0828 42.189 12.1329
1 26.491 37.4255 30.7913
1 39.5199 38.8635 23.5363
1 23.4012 38.0997 3.65825
1 30.4396 17.3691 43.8179
1 31.2276 31.0019 15.3694
1 8.46167 11.9418 35.2757
1 10.1136 44.7097 45.1968
1 3.92709 19.6612 5.34657
1 13.5338 31.897 22.1596
1 5.52706 30.9213 5.15858
1 9.3506 1.48177 19.3181
1 44.1546 43.693 21.1014
1 45.2563 8.04715 3.54448
1 43.4652 33.5892 17.4282
1 12.6293 25.9333 37.5054
1 15.5624 21.4254 2.50942
1 30.7679 4.12452 11.3654
1 20.624 19.8669 6.78555
1 9.21909 43.3653 7.70861
1 49.0417 36.7973 15.6567
1 26.829 25.3638 2.14544
1 48.2406 19.8447 20.0831
1 38.0723 23.5778 30.9677
1 21.2845 42.4981 46.5539
1 18.7963 13.3098 48.9144
1 6.96989 7.61109 14.2967
1 32.198 1.91456 35.3696
1 21.8229 2.43835 19.528
1 45.7343 13.2636 20.1664
1 42.1493 36.7836 13.8041
1 21.6517 23.2149 29.7648
1 46.002 24.2088 8.8513
1 40.3718 5.94817 19.5257
1 31.9701 23.6047 46.6425
1 49.0962 22.1804 28.5383
1 1.08225 1.55611 10.6555
1 8.21216 25.7743 42.2433
1 5.2646 33.2627 8.88905
1 19.0846 13.6931 7.4204
1 31.2618 13.6884 17.0377
1 6.98072 23.1488 34.4477
1 23.9817 43.6666 35.2845
1 49.6125 38.1433 20.2819
1 45.581 10.1726 20.6723
1 28.61 34.5058 39.9024
1 6.6481 1.68008 36.5325
1 35.1164 30.3121 48.4321
1 49.1537 25.2976 42.4232
1 24.0615 46.8673 3.03538
1 21.7526 1.33205 27.9127
1 45.6743 7.78698 40.8882
1 40.3705 37.3971 29.814
1 5.81863 16.735 36.2546
1 29.8959 24.1354 20.4959
1 40.7711 32.3534 41.1772
1 36.8414 29.036 0.0877291
1 13.0878 25.0583 18.4999
1 22.1553 26.7235 29.3883
1 32.3904 16.927 2.5573
1 16.0793 47.8146 22.5049
1 40.0723 29.158 12.7629
1 48.4998 18.6237 6.26192
1 1.37874 0.0279421 8.10081
1 2.57927 28.5724 21.0471
1 27.2968 6.31771 38.3824
1 14.9512 6.65556 9.40738
1 28.215 25.9445 40.1616
1 23.2995 5.14016 7.18149
1 33.9942 1.41733 2.05194
1 17.1629 14.7572 11.3773
1 32.2017 3.28469 20.5774
1 12.9945 22.446 8.03879
1 8.84338 7.01474 18.3578
1 37.5873 9.94895 29.5866
1 44.0011 10.2158 11.1372
1 28.5344 31.0324 16.3857
1 43.8544 13.4298 17.9606
1 12.2908 27.1808 0.972118
1 37.3571 17.8277 16.5626
1 28.1373 12.7701 24.5365
1 16.0405 11.934 46.9653
1 48.0426 30.0378 13.974
1 21.4981 46.9636 2.06701
1 16.1177 44.8874 45.2333
1 7.07535 34.8886 21.7665
1 39.7726 36.2646 8.15926
1 7.65501 34.4546 49.3481
1 45.4156 4.73698 25.6604
1 6.12516 43.5193 11.5771
1 30.1884 28.8819 42.317
1 41.0595 40.7527 10.4226
1 16.9232 32.6574 48.2581
1 8.50546 28.0249 3.67231
1 26.2275 13.8277 15.1425
1 40.5748 9.68056 12.5211
1 6.30965 3.43612 21.7037
1 43.5304 20.81 6.11299
1 7.17335 25.9068 7.02125
1 0.248746 29.6846 0.19226
1 28.8116 44.4911 29.8055
1 36.6166 15.9932 42.452
1 35.3282 39.7185 43.6034
1 47.73 16.8687 22.115
1 8.20819 48.0626 7.70201
1 38.9474 29.1337 15.993
1 39.2011 33.5737 39.5667
1 48.8817 15.8019 37.1302
1 9.3927 43.1078 41.3572
1 17.2211 23.4565 21.4507
1 13.1683 48.5411 13.7036
1 15.5955 14.4602 30.9263
1 38.1991 0.79761 11.9785
1 31.4428 14.3746 4.30122
1 16.8199 3.27167 12.38
1 11.7997 8.00207 8.51414
1 1.98161 13.7049 41.8842
1 2.06773 3.1117 34.6738
1 4.72163 14.0001 48.6815
1 22.4883 36.2876 21.9569
1 34.3332 20.7746 47.7395
1 16.9636 33.0994 3.14511
1 39.1311 30.2724 0.44807
1 37.5508 13.6481 45.9532
1 34.9855 21.4415 2.34698
1 27.0466 32.9144 7.04284
1 1.85698 25.9858 48.5099
1 43.9967 12.8868 45.2557
1 42.4607 35.8337 29.2618
1 26.7839 22.9872 6.40988
1 23.4806 27.8284 9.86525
1 12.7578 46.9561 10.8986
1 9.02521 34.7876 33.3529
1 4.75457 34.9881 32.069
1 23.1074 30.5534 12.9686
1 29.9648 19.8223 27.6785
1 23.6427 20.1708 33.0449
1 12.5845 10.7299 0.100408
1 14.5515 31.1933 42.8548
1 2.1622 38.0405 39.7403
1 7.72477 49.2522 22.9885
1 38.831 19.7873 43.3064
1 2.62899 5.27452 26.6059
1 46.3684 25.4026 23.2536
1 13.0995 48.8106 49.3803
1 11.5101 34.2712 1.39085
1 27.9311 33.5932 21.7079
1 13.6486 10.8636 43.3664
1 31.1145 41.5529 45.0721
1 1.77272 44.7888 3.93375
1 10.5913 22.7824 24.1957
1 6.18795 41.3862 14.8257
1 43.5348 21.9851 1.07363
1 44.7149 31.8784 24.2117
1 46.4105 44.4468 29.7066
1 46.2543 36.9133 34.0622
1 39.4167 36.9851 32.2538
1 41.5076 8.20252 33.341
1 35.1025 33.9729 37.9808
1 3.76504 19.9516 1.60697
1 36.786 40.6076 34.5412
1 34.3516 38.114 38.2562
1 10.2859 43.5879 3.40249
1 8.43515 0.76589 8.37516
1 29.4509 27.9021 49.3579
1 8.96396 4.39287 1.8774
1 19.968 41.8913 5.30263
1 5.14648 1.73035 39.3675
1 3.60472 7.94747 46.1166
1 44.5704 11.1668 3.87193
1 45.7498 11.931 1.17897
1 9.90171 1.86439 0.204243
1 24.5965 35.3602 23.2208
1 23.5508 19.9259 45.8129
1 43.2775 42.4371 0.105891
1 9.81993 9.77157 39.2159
1 5.31719 25.4346 26.8945
1 37.9345 37.946 7.42969
1 47.1379 29.5078 47.0347
1 19.8834 30.3543 38.7166
1 17.8699 4.40612 46.9243
1 7.25606 28.2899 39.4134
1 3.52572 25.0287 7.56561
1 6.88829 23.675 47.3368
1 5.25364 22.8714 20.966
1 28.7009 20.0759 11.398
1 38.2471 14.0274 35.3328
1 2.66054 38.8442 31.4535
1 17.2117 32.8313 21.7939
1 16.2898 5.79547 24.7006
1 40.0847 26.4187 31.9017
1 42.0031 32.8812 49.2319
1 10.9343 43.8133 19.8611
1 33.1252 20.0354 16.9521
1 36.5797 3.54438 14.6281
1 21.3399 39.8227 22.9663
1 33.311 28.4695 48.4598
1 2.47124 27.6694 44.1291
1 48.7948 34.9694 7.23881
1 15.1329 22.6579 14.4344
1 34.0484 30.8974 41.9168
1 6.12786 30.5354 16.6296
1 34.1816 21.0528 26.0455
1 0.375418 13.4468 10.8723
1 5.61723 24.4243 5.09577
1 3.41331 38.2648 11.9304
1 41.1135 23.8246 42.1275
1 14.4339 6.26674 2.07947
1 10.2647 28.2151 7.95176
1 12.8556 3.66858 13.5208
1 24.4014 31.1377 15.14
1 47.9837 48.4004 32.0249
1 33.3129 40.8654 12.8437
1 6.30967 37.3411 41.0989
1 8.34731 7.66005 22.7923
1 41.3925 45.6842 17.2145
1 29.5214 42.3512 31.0333
1 24.23 24.7394 26.6125
1 24.8636 27.1644 38.8156
1 40.8757 47.362 19.5951
1 12.6683 47.2762 17.7663
1 45.6098 31.4886 34.8022
1 2.14102 28.8473 23.7026
1 9.70912 20.2185 24.0753
1 47.8919 43.6298 3.75558
1 6.89233 47.9105 36.9768
1 32.8237 16.1874 30.6499
1 4.91837 36.4127 25.3323
1 48.2684 22.5448 42.6634
1 49.3243 18.1004 41.7415
1 23.6884 33.0447 47.7455
1 46.6961 45.8268 40.7149
1 14.5087 2.79805 42.11
1 15.6921 12.9362 3.30057
1 39.5767 7.89309 36.8927
1 26.716 42.4657 44.9015
1 30.5342 8.40381 13.1989
1 11.6787 38.1294 6.96636
1 49.3321 44.7601 33.9875
1 0.0222936 10.6946 9.85302
1 13.5793 36.6137 46.8749
1 11.6508 7.82834 14.7883
1 8.00794 32.771 8.08437
1 43.8395 19.056 16.7546
1 17.1147 8.17386 17.6086
1 12.3799 17.8287 38.0146
1 44.2186 25.4641 45.3436
1 33.1032 44.2769 10.3266
1 10.2009 0.353008 2.99235
1 11.4512 36.4149 21.5042
1 23.0844 38.9964 20.6727
1 4.90509 25.3615 22.3261
1 9.81253 5.22833 44.7361
1 9.96627 15.371 11.1134
1 30.3634 37.4257 16.9479
1 24.3651 25.271 9.67053
1 35.9666 30.8743 29.4712
1 42.5928 44.7965 47.1931
1 16.5312 40.6862 48.2541
1 29.1704 36.0095 46.6257
1 7.32123 17.0465 38.5199
1 11.9121 38.7151 26.5117
1 12.3386 2.83074 1.13543
1 15.4771 21.3377 28.4109
1 44.6727 41.7356 45.6676
1 18.2812 44.527 42.3485
1 23.3352 44.4442 4.36187
1 25.2453 46.1982 25.615
1 18.6756 30.8554 19.8902
1 11.9951 39.77 3.47505
1 17.3887 31.9371 31.2563
1 15.4705 42.4459 17.4451
1 47.6557 46.4404 13.6419
1 12.0009 9.24937 4.65137
1 17.7684 28.9668 1.49877
1 20.9272 32.9084 29.8542
1 5.15648 24.2355 1.17799
1 7.2636 16.8272 17.8214
1 0.437613 11.8205 1.10743
1 3.14929 35.6869 0.51075
1 3.16454 19.6057 13.5776
1 7.39733 10.6901 25.8035
1 39.5329 39.9088 12.4512
1 5.60909 24.6086 32.7367
1 3.2052 15.9578 -0.0150985
1 11.7831 41.0519 19.5164
1 0.447154 42.8009 7.27183
1 31.4156 29.2285 0.992536
1 2.12392 27.3157 30.1586
1 31.052 41.1626 14.5599
1 10.5248 7.08084 1.3739
1 13.3801 28.0376 45.4689
1 17.9017 39.1389 0.695846
1 27.2047 4.40125 9.09526
1 24.6205 41.7831 30.9218
1 42.2987 43.0991 2.56643
1 23.8203 39.4785 29.314
1 5.53528 1.54004 19.5905
1 5.21371 20.5369 7.78749
1 37.2686 42.1101 38.148
1 41.4527 8.98716 39.3296
1 33.0351 11.017 28.9905
1 19.7514 39.5291 28.2364
1 22.4934 48.3331 19.5144
1 12.3936 22.0159 18.0033
1 7.76591 36.6091 29.0835
1 20.673 21.615 40.0249
1 43.705 49.2245 32.681
1 43.5348 3.00335 15.7504
1 35.3553 44.7156 32.8906
1 34.4173 16.6398 34.62
1 47.9758 38.5292 23.1077
1 23.7366 14.417 33.7504
1 34.3226 30.1291 31.5552
1 14.3066 42.699 37.5874
1 29.9998 8.60241 47.3405
1 45.6929 30.8978 13.5895
1 41.4743 30.9825 25.1749
1 36.2597 31.8697 46.5951
1 33.8214 46.3713 19.5911
1 38.4882 11.5511 34.0039
1 23.4608 7.73639 41.4743
1 15.6253 24.8473 19.1355
1 18.7933 16.0926 17.5579
1 9.5406 27.2302 25.2276
1 46.3787 39.0366 9.2875
1 20.2925 45.3119 27.5134
1 47.7974 23.8401 29.6998
1 24.0314 34.86 27.867
1 32.5307 22.7636 22.5525
1 34.7231 44.5557 13.8326
1 18.7355 25.5137 32.7978
1 5.28234 13.6977 43.7164
1 35.4999 43.6332 3.42137
1 28.5249 11.4177 8.46714
1 0.134 38.694 26.1097
1 40.2715 31.3898 45.017
1 38.8709 37.8922 19.7775
1 30.7121 17.4373 21.3023
1 40.3126 11.2337 17.4572
1 13.9102 12.0926 20.5134
1 5.17819 42.7983 18.6078
1 24.5215 45.4299 44.8176
1 19.6937 7.21016 23.6631
1 0.542862 44.9172 44.2612
1 27.8121 29.0258 26.8117
1 34.2947 28.7931 37.0215
1 2.09481 7.80658 8.07819
1 29.2136 32.2798 19.4045
1 27.9991 38.3093 46.2583
1 37.3677 7.19993 2.13126
1 49.461 6.01346 3.87483
1 41.5591 28.4071 9.77
1 3.82913 38.5702 28.8533
1 13.1394 35.6263 42.016
1 25.4977 47.3998 46.5282
1 23.3673 33.2049 12.0972
1 0.665553 35.6183 5.03338
1 7.62031 48.6326 3.12091
1 29.3374 16.5163 35.054
1 48.8793 20.286 47.2808
1 19.1771 35.4855 45.524
1 2.06557 36.0248 10.1982
1 1.9859 22.1111 24.2844
1 45.702 26.006 15.9399
1 48.9802 39.6024 12.3267
1 34.1897 14.0859 35.6353
1 32.0046 12.0438 45.4806
1 34.3059 16.9537 13.516
1 45.6114 26.1593 10.9889
1 4.73678 24.6902 42.5122
1 0.215037 22.4225 0.830839
1 38.0064 42.7262 2.7118
1 38.1523 24.622 23.9896
1 8.15681 21.0101 21.8204
1 21.4448 10.3811 6.41462
1 32.0913 46.4846 36.9437
1 34.0225 24.5474 23.9394
1 49.0026 39.913 34.6449
1 26.0973 10.1212 36.1651
1 39.8602 12.5907 42.2676
1 15.683 5.99183 18.9953
1 8.82622 29.3453 44.6052
1 21.1338 31.8352 2.06689
1 44.8993 40.879 3.90795
1 15.9276 3.11633 24.438
1 6.83481 32.6053 23.6696
1 24.4315 15.9949 19.1294
1 14.7361 35.0924 3.83604
1 20.3154 39.3806 37.6621
1 21.8833 34.9803 48.3794
1 5.16479 28.0623 26.4264
1 21.2625 42.5171 23.8605
1 13.9724 18.4599 21.0612
1 9.25606 30.6962 6.989
1 19.0126 15.8931 34.3135
1 41.8004 49.4034 23.6451
1 1.94663 9.30718 48.3226
1 38.1616 4.42355 26.2834
1 17.94 26.2979 27.1692
1 7.10193 18.3626 33.8788
1 45.7381 39.6846 44.0297
1 0.431596 27.8819 11.5642
1 34.1961 47.8592 4.1273
1 7.76232 43.0751 13.3937
1 1.58202 0.896712 47.9072
1 43.8668 29.7664 16.8316
1 15.8811 1.39095 1.12472
1 22.7772 11.0981 46.4274
1 1.28935 38.407 3.88656
1 42.5844 36.4687 7.83733
1 45.4964 5.3195 48.4845
1 8.80134 45.201 35.3263
1 39.1721 0.898552 47.7332
1 20.3799 5.66367 12.2725
1 46.7546 22.4007 45.1121
1 32.9103 37.3043 40.6491
1 22.4765 32.0827 17.2742
1 35.7992 43.8838 28.0989
1 46.2281 28.5954 24.881
1 42.309 21.5474 43.3216
1 48.266 36.2759 3.57131
1 2.84291 22.6388 1.84312
1 22.6109 48.7615 26.4768
1 30.1886 38.9135 23.9078
1 27.2807 22.2901 13.0671
1 7.44383 5.73118 31.5656
1 22.6398 28.7552 4.52082
1 17.5819 44.3011 27.5678
1 43.9373 6.51248 24.5223
1 34.7007 13.5261 21.9034
1 9.91237 42.5328 23.7905
1 7.30914 49.3919 18.4102
1 13.3731 42.8925 27.9574
1 15.073 29.77 28.5588
1 2.12543 47.1362 37.4158
1 7.50259 32.0988 37.5414
1 46.7227 44.0935 33.7387
1 18.0235 14.4739 29.8076
1 48.4751 10.304 5.5228
1 10.8918 1.77609 9.14675
1 13.0266 30.7022 4.3583
1 0.976641 12.9621 20.4809
1 18.4518 15.8469 23.538
1 0.740145 16.602 5.44898
1 28.3253 48.5749 20.4909
1 0.425805 30.5954 31.3694
1 19.1118 34.4895 47.9313
1 41.7284 36.2098 36.3541
1 20.0202 4.72416 35.5521
1 40.4889 32.83 1.9505
1 39.2677 29.3697 35.1899
1 41.7328 27.8169 42.4717
1 45.8094 42.5795 1.94938
1 8.6017 3.99287 29.7309
1 6.15683 34.8191 17.0814
1 45.5118 38.4589 47.6909
1 28.1318 23.4036 46.1369
1 28.0819 16.6523 7.12688
1 7.36458 3.33944 49.3724
1 10.828 8.8692 24.203
1 31.0485 35.8982 36.7258
1 28.0626 26.6235 14.1778
1 10.9735 39.5829 41.887
1 22.1222 13.095 13.351
1 24.8005 17.6025 5.6527
1 6.34732 32.6057 28.3781
1 45.5701 -0.000310935 43.0446
1 19.4562 8.99862 1.8707
1 30.6285 33.7717 10.4151
1 40.3383 45.6885 5.42535
1 3.84701 17.5277 29.7366
1 39.9786 5.39646 15.2951
1 23.1788 48.3031 39.9788