4096
 Atoms. Timestep: 1520
1 42.1732 19.291 37.8039
1 12.6606 8.61172 0.754579
1 23.6876 10.6538 14.202
1 35.4237 3.73657 42.3703
1 18.7429 8.71998 23.3159
1 38.7322 18.2622 25.2367
1 21.513 3.6907 31.183
1 47.048 18.604 44.3923
1 4.25428 9.75911 30.6474
1 22.6592 2.18425 16.6937
1 12.1292 2.31862 0.14568
1 26.0589 30.6626 4.14542
1 43.2845 22.2778 36.0467
1 21.3407 33.7167 15.7758
1 30.9138 30.9707 1.03175
1 39.9231 10.3412 11.3492
1 48.7958 3.56707 1.59457
1 44.2565 3.30618 21.2385
1 10.0833 27.4001 36.4094
1 6.51086 32.4468 15.4237
1 43.2115 12.4419 18.3609
1 24.0196 38.8788 18.6486
1 16.7602 3.32112 44.5829
1 30.6646 10.6131 6.81793
1 45.3233 4.70851 9.27622
1 12.1368 11.502 3.84823
1 8.6961 17.1802 8.99068
1 2.07808 10.6735 21.5233
1 18.3061 3.07555 40.2608
1 12.9259 35.4552 48.5091
1 37.7478 39.5327 5.68871
1 35.8298 9.3313 48.5702
1 42.6733 18.3786 28.2213
1 8.2882 2.37258 16.5703
1 1.9091 45.8209 45.0504
1 39.1377 46.5665 45.1247
1 43.1741 39.6795 48.4447
1 24.0201 9.2441 40.9611
1 13.9712 21.0485 40.7404
1 1.98581 27.6204 11.699
1 23.5836 39.7258 42.7244
1 41.1962 30.8057 27.1093
1 21.202 4.94666 20.2649
1 22.1234 37.316 3.60282
1 14.1148 23.3732 7.44551
1 2.86929 46.7221 27.7366
1 17.3177 21.3369 47.2494
1 43.81 4.8245 5.4679
1 26.7645 1.18199 10.4218
1 1.26318 11.479 2.07789
1 2.40606 21.3922 17.0835
1 48.5404 9.86508 39.1194
1 9.62053 19.5945 38.7062
1 2.83285 48.2655 34.6265
1 28.8775 39.6902 49.2312
1 26.1997 12.9388 10.0184
1 15.1672 6.94378 27.5503
1 20.8665 47.1623 5.81896
1 29.9455 11.5477 40.0635
1 7.20593 6.83827 21.7461
1 31.2152 12.0028 14.3274
1 3.7852 11.8098 19.4887
1 6.09935 11.6873 15.7235
1 22.06 3.14327 3.72292
1 19.5338 36.3205 0.0780831
1 0.176139 15.9856 42.5067
1 34.2285 41.0455 11.8257
1 0.926466 8.85413 11.9862
1 13.7183 46.7905 10.5729
1 46.2547 48.6884 14.366
1 2.43862 38.802 0.602418
1 26.5097 11.8069 42.0258
1 11.9895 33.2797 28.0574
1 45.3163 22.5355 0.457976
1 46.5264 21.8497 48.0369
1 6.80038 13.0809 11.0485
1 21.5193 29.1363 38.8581
1 43.4388 34.8374 34.8622
1 20.8279 32.0499 43.3013
1 10.0294 46.0981 20.6937
1 40.6082 9.18099 31.5129
1 32.6538 37.1868 49.3247
1 6.09939 37.8538 27.609
1 21.6492 13.2337 9.90544
1 16.4916 44.7309 47.6395
1 21.6562 33.8697 36.0128
1 24.9829 3.01431 49.7639
1 27.7993 18.9841 16.0531
1 14.5089 5.00446 47.6379
1 22.5098 14.8028 19.0627
1 47.3784 0.699751 8.65182
1 0.633953 18.3272 19.7613
1 18.8123 43.428 12.5484
1 43.9996 5.75852 11.4466
1 35.1149 15.2492 39.4903
1 5.71391 1.09882 4.00122
1 36.0507 24.14 28.5036
1 17.6868 0.0571863 34.676
1 40.2645 17.1343 7.5888
1 48.6719 12.4607 6.76899
1 43.4571 4.22878 42.6982
1 34.1165 35.4454 47.8174
1 3.58128 13.514 40.9506
1 23.0245 18.6362 15.9651
1 9.42958 29.1336 10.1308
1 41.5125 17.5306 42.0058
1 38.4402 13.3534 9.39084
1 20.9206 18.0841 22.7975
1 32.3223 23.4325 46.0067
1 30.3878 45.469 1.51809
1 16.3619 42.6823 26.4351
1 6.55321 46.7409 32.6423
1 48.3453 37.4705 2.66237
1 49.3118 23.0827 19.6096
1 18.8003 49.2491 28.3563
1 33.704 2.00418 4.0182
1 16.6008 15.4243 4.43038
1 11.5687 19.9882 44.5921
1 30.1436 35.8157 12.2894
1 42.0361 49.6181 28.6454
1 11.6387 38.0743 19.5143
1 10.0281 11.0323 30.7783
1 24.7288 34.8529 12.9388
1 10.3023 20.7222 0.0155835
1 49.5373 44.3578 25.2303
1 44.1017 18.1906 10.4124
1 12.626 44.4137 1.13312
1 6.9498 46.4617 7.33056
1 23.0741 22.5707 13.8541
1 34.8021 36.3451 28.1388
1 45.4343 10.539 34.9102
1 19.1838 9.42284 47.9464
1 48.8897 33.2243 41.3342
1 7.23782 43.7869 29.8444
1 7.64899 38.848 14.5274
1 41.1474 5.34607 4.42238
1 6.25124 46.4592 0.736241
1 24.6604 28.444 2.25553
1 34.0673 43.7816 28.1123
1 27.0171 38.2799 39.7613
1 13.4354 26.0617 29.9436
1 21.2683 49.5492 14.9481
1 15.1081 32.4192 16.8532
1 4.59026 3.87201 43.7627
1 32.3412 18.2903 47.6557
1 45.8476 31.1398 19.4581
1 42.9225 13.2159 47.0658
1 28.271 17.5838 13.4047
1 0.309885 32.2036 19.1169
1 37.9309 15.6313 11.1158
1 4.13134 17.8042 16.7284
1 40.6135 47.3231 49.6381
1 16.2895 25.1673 18.0034
1 26.8557 42.8078 15.4661
1 5.49128 15.1474 42.3345
1 17.9627 37.1714 33.3557
1 4.15819 31.9394 31.8571
1 34.0974 38.0195 40.9414
1 10.0279 40.2618 23.1839
1 30.2194 23.5094 20.762
1 13.4777 6.50157 41.5429
1 7.32116 1.5774 19.2599
1 21.0857 39.6146 17.897
1 7.43248 7.9481 2.58537
1 3.19954 19.5223 0.496067
1 45.1353 2.15675 8.73573
1 31.0119 23.9134 30.5848
1 27.2465 45.8254 15.0082
1 15.2398 47.2613 42.5574
1 6.27969 34.5398 22.0577
1 48.153 49.7677 35.7925
1 24.2426 48.5354 8.54537
1 11.7998 20.0952 8.44448
1 42.4577 22.2565 13.0914
1 11.8366 42.6385 3.07977
1 2.62282 2.21013 29.3178
1 26.1612 14.1088 38.0321
1 9.8842 31.2013 8.03048
1 39.5901 21.9949 40.9084
1 28.4776 5.44676 36.4209
1 40.4002 12.3617 17.9362
1 16.4628 27.0979 33.4276
1 48.2368 7.43527 39.4688
1 20.4024 1.04692 49.8464
1 35.0112 22.5649 45.9494
1 14.6689 18.2808 31.3291
1 47.6396 43.5352 28.5255
1 25.441 6.04503 15.368
1 10.0027 9.89267 27.8337
1 10.1771 11.9625 12.1156
1 1.69854 13.7697 43.1511
1 20.78 12.8699 20.1084
1 2.37494 47.9818 16.8644
1 6.37247 44.8365 26.6056
1 43.2221 44.2497 8.32687
1 3.87369 18.7826 47.5516
1 1.73945 15.0086 29.1703
1 -0.0113795 20.7607 24.9894
1 2.98764 3.47566 1.19578
1 33.3255 7.77472 13.9703
1 29.6638 19.5541 26.9495
1 31.8706 4.10588 48.6717
1 19.6677 4.68819 33.2696
1 7.09687 38.1234 23.2743
1 23.7946 18.7893 36.748
1 34.8266 5.53567 36.3609
1 15.0607 9.37938 32.7658
1 19.8603 35.4335 12.1692
1 42.8543 15.7025 34.2489
1 25.5474 9.40371 4.5548
1 45.9695 49.1795 32.2031
1 12.7648 40.4381 25.6348
1 48.5048 8.84429 18.9173
1 2.55882 17.7999 39.1485
1 3.46007 24.4323 13.9199
1 4.63052 41.4458 42.823
1 24.1866 30.2924 14.1076
1 16.5176 2.89176 49.7625
1 29.1257 19.7996 12.1647
1 1.34487 42.525 32.0849
1 25.3585 47.6004 34.2568
1 28.7606 7.8328 17.1234
1 48.4652 27.1398 25.7712
1 39.4524 23.4903 27.0181
1 47.5098 19.5362 39.6045
1 13.9364 28.7147 17.466
1 45.5909 28.7215 31.2857
1 36.7425 27.9428 23.6079
1 14.2665 37.213 18.4607
1 5.60399 17.6513 41.9872
1 37.6452 7.8065 4.95434
1 32.0395 36.2943 29.0688
1 0.580612 42.8781 17.9615
1 22.3613 22.8629 22.5733
1 16.9925 12.0898 42.2899
1 15.4119 45.3167 25.2722
1 5.47973 9.72923 18.6897
1 39.0996 32.5897 2.49911
1 5.0193 38.8018 6.30142
1 0.984349 13.0391 30.7691
1 7.97893 16.9145 17.2504
1 9.57072 6.54145 25.8333
1 40.6197 33.7942 9.66706
1 47.6774 36.1926 25.0855
1 2.97601 46.4617 41.0905
1 42.8092 29.0375 31.7918
1 24.4363 42.9834 17.3769
1 29.2534 36.9833 48.4926
1 12.8688 2.87992 12.8446
1 44.6743 18.8029 5.58199
1 15.1112 14.5709 2.17687
1 5.67034 2.32223 47.0784
1 6.41154 1.90866 14.7861
1 21.4061 33.2229 40.8261
1 41.1275 43.5198 32.3069
1 43.0931 32.8736 39.4435
1 8.16456 5.41268 28.03
1 8.89882 22.0541 24.7889
1 7.102 5.17909 1.01621
1 46.0144 19.4897 46.8704
1 4.99419 6.5947 49.7725
1 31.0392 29.6759 37.8954
1 29.8279 7.8012 21.6603
1 43.0235 0.224039 14.4254
1 22.3089 5.69946 15.1561
1 15.34 28.8717 5.68259
1 5.81507 9.16999 49.2164
1 24.8048 36.2159 32.4722
1 10.4485 9.74054 43.9358
1 1.52591 21.2443 33.3221
1 32.306 47.4336 38.6231
1 38.0975 42.4045 46.5407
1 8.99096 34.1879 43.2627
1 24.9986 37.21 1.87311
1 49.3178 26.3885 46.3864
1 7.184 25.1 49.5052
1 17.3861 13.0967 16.9811
1 21.7846 0.533312 37.136
1 27.2035 22.7013 28.3296
1 42.1901 1.06983 32.3937
1 10.1092 4.85018 20.4638
1 11.2563 15.9543 22.6839
1 0.791185 46.2706 1.94114
1 0.32928 32.6093 15.0586
1 5.48658 27.8782 29.1224
1 8.25764 30.6719 35.227
1 31.1858 22.9027 38.2923
1 0.725058 26.1534 13.6338
1 24.5297 1.3317 8.32802
1 6.33119 26.5549 4.16785
1 9.16793 27.3059 20.6528
1 43.2382 15.513 48.3983
1 15.4389 21.0623 33.1462
1 9.56121 42.8538 15.3931
1 16.9879 24.0618 20.5231
1 9.15806 18.8369 30.2307
1 38.0164 43.2853 43.9821
1 31.1125 12.597 21.2919
1 37.466 16.3463 30.7811
1 22.7075 8.40648 15.7278
1 48.4401 40.3397 2.97046
1 31.6387 15.4323 26.0558
1 7.29805 31.4092 41.3627
1 19.7483 45.5437 40.3427
1 7.23437 37.8105 9.15567
1 17.4165 47.1049 9.76423
1 9.30474 4.45483 49.1438
1 41.1892 11.1999 33.2294
1 16.6099 14.1238 22.7704
1 22.6366 9.27345 8.04998
1 13.0669 47.1578 5.72396
1 33.2296 38.7285 44.9643
1 40.3081 48.7062 43.8715
1 17.8912 3.7026 13.5594
1 4.11073 29.6309 23.6875
1 16.6532 37.7602 4.51188
1 27.9695 29.7694 8.15596
1 23.9215 32.5678 37.0902
1 14.9645 22.163 37.0331
1 34.4848 29.5924 42.5873
1 33.2953 37.6652 23.73
1 3.20895 33.9142 9.15921
1 15.9461 35.9187 15.5021
1 18.8472 10.9027 45.5013
1 29.3892 29.1717 41.8638
1 1.34148 5.69444 37.2545
1 24.9593 37.2821 22.7587
1 2.56902 24.1827 3.62756
1 32.8304 5.74756 23.9576
1 10.114 16.869 18.9284
1 44.1427 39.2912 26.2825
1 6.36998 22.253 28.0797
1 15.3274 19.2434 24.0804
1 44.0247 8.52988 11.0443
1 31.6029 8.233 46.741
1 29.251 14.977 46.7232
1 38.4669 25.328 4.90528
1 21.7588 5.35862 45.8143
1 10.4808 16.5013 47.5622
1 33.3683 39.9732 25.3524
1 32.4244 3.59483 1.93761
1 10.2317 48.3656 0.117638
1 25.3155 29.3693 49.2703
1 5.4154 33.6676 35.2768
1 13.0813 35.1414 11.7148
1 19.9785 47.5077 18.2784
1 19.9252 5.88391 9.1378
1 3.29293 35.5954 22.0312
1 30.957 46.7921 17.3402
1 8.92003 23.2201 27.1073
1 29.349 11.2648 24.5617
1 37.761 12.2662 33.246
1 45.4752 25.9572 41.0487
1 8.53697 46.2043 46.3128
1 11.5981 6.41074 30.9473
1 43.2587 3.55443 23.8648
1 23.7394 11.6895 8.53919
1 8.33436 39.5962 17.9035
1 17.3643 17.8868 36.7561
1 33.4924 36.7507 36.7926
1 10.2459 13.846 3.80962
1 16.5055 30.0579 25.3928
1 44.0338 12.3416 13.8822
1 21.3455 14.151 15.523
1 47.1417 18.0809 22.3226
1 15.3154 28.5224 27.3992
1 47.8658 34.3627 6.79693
1 10.9861 47.1265 31.7762
1 29.4327 39.8962 17.0555
1 0.694532 48.4776 27.078
1 2.24051 30.3675 41.9564
1 27.0027 49.71 4.85042
1 42.296 11.6062 10.7908
1 47.4046 13.6325 37.8187
1 11.9691 30.3207 16.2595
1 8.96672 12.9558 20.0893
1 7.76654 42.1486 5.66593
1 4.65791 7.35713 2.93347
1 18.3758 11.3275 20.8545
1 43.8888 13.3835 20.9524
1 40.7079 15.5934 21.1294
1 33.1741 7.04136 27.7198
1 10.5448 17.9348 40.3527
1 44.6075 6.57134 7.66881
1 46.2162 8.00578 26.4967
1 23.1231 35.9533 35.0685
1 12.3738 5.79892 43.7955
1 3.56519 19.1072 10.8212
1 9.84538 8.45571 41.4217
1 11.3865 10.9874 1.43446
1 41.2776 26.7113 1.53339
1 14.1324 28.2988 44.4079
1 30.8088 46.7238 4.12695
1 33.2173 7.74408 43.918
1 9.10679 6.48681 11.1936
1 13.3257 21.8511 14.3884
1 21.844 26.5416 4.93073
1 27.2085 4.31911 24.525
1 48.7617 44.8252 18.0224
1 10.744 13.7189 28.6449
1 14.7475 1.52835 42.8954
1 45.9923 43.5184 23.4591
1 3.91242 8.91922 22.2272
1 26.8945 19.2851 45.2049
1 11.3442 6.99634 12.9861
1 7.78772 6.89426 46.0622
1 0.165912 23.0777 13.3019
1 22.9472 3.5731 40.3458
1 42.8084 48.4142 26.0667
1 17.8234 9.40597 14.9673
1 5.42708 11.9527 31.3682
1 0.851695 2.87649 20.3681
1 18.3094 42.0563 20.801
1 8.74124 38.5858 43.9584
1 46.4885 2.0385 33.9635
1 1.2548 22.1652 40.3962
1 18.3202 48.1667 14.2247
1 22.233 36.1525 1.07509
1 24.019 10.1092 29.4153
1 11.2257 34.8473 26.2919
1 0.813625 2.78953 23.6483
1 35.9328 19.0689 31.8533
1 34.6366 40.1184 29.7352
1 8.73903 4.38911 13.2488
1 48.4024 32.1641 25.2386
1 11.255 35.5477 34.2313
1 13.4146 3.76207 29.9448
1 14.3653 -0.0145612 8.93754
1 44.761 45.2232 31.0388
1 39.3883 23.4929 48.2621
1 16.8528 41.9636 39.7436
1 33.8399 45.4829 11.7826
1 39.9952 36.3026 15.1822
1 19.0789 37.4351 4.20611
1 38.2025 4.32505 20.9559
1 17.648 0.69013 3.43633
1 1.30349 34.2764 41.5311
1 25.5025 17.5154 17.0028
1 8.12783 13.8409 29.7665
1 46.6513 2.36817 15.1802
1 7.73773 35.9627 34.6254
1 9.95658 41.3522 7.18126
1 8.97067 5.12006 17.2238
1 12.0943 3.39813 22.2323
1 27.0342 7.28838 27.5805
1 22.5792 11.3557 24.3317
1 8.73392 12.4656 32.6898
1 20.2626 19.781 46.7843
1 41.082 20.7673 3.37763
1 25.9769 38.6022 32.4582
1 1.94571 1.60019 17.552
1 15.6038 48.1369 24.9632
1 4.52086 5.07037 47.3239
1 30.4176 17.8801 33.4667
1 35.8782 12.2583 28.71
1 46.6552 35.97 38.5405
1 7.31058 36.3549 45.4544
1 12.2642 45.0776 27.8217
1 29.7179 49.3393 30.147
1 32.3475 8.23466 25.039
1 29.2708 9.06839 31.8616
1 10.0066 30.3731 41.6691
1 40.1202 1.70662 47.0669
1 41.1174 2.34073 5.04991
1 28.058 13.8311 32.6738
1 37.3568 15.8621 17.4055
1 21.8062 5.77624 42.7515
1 29.503 29.3891 27.0982
1 22.3028 28.9145 3.63038
1 29.9484 35.37 35.0973
1 36.6554 21.7646 14.8213
1 4.89035 10.7361 7.84891
1 30.102 26.5277 17.4443
1 42.5144 46.5155 35.7185
1 38.4434 29.5478 12.2276
1 1.59317 8.38578 16.6559
1 24.7386 38.4948 49.3205
1 46.0435 2.11091 29.5604
1 16.2856 2.73767 9.22704
1 48.6108 10.0335 43.9577
1 12.6983 16.3917 36.3927
1 18.8012 28.1178 19.2108
1 28.3838 49.6754 37.5241
1 11.0316 37.8736 24.2838
1 5.51324 20.4152 45.6712
1 0.631205 27.7383 16.0384
1 42.625 25.9943 19.2291
1 13.3828 25.813 35.967
1 35.6371 14.5367 47.6225
1 11.7712 34.9505 40.5207
1 29.769 28.3924 7.41273
1 30.2915 11.5746 37.5095
1 44.2119 8.41778 4.29099
1 31.0285 38.9119 2.33847
1 43.5485 16.4623 30.0198
1 36.0834 42.0275 4.41801
1 14.8117 13.1452 40.5317
1 10.5971 3.58353 30.7068
1 10.4884 38.7496 6.78308
1 30.3997 15.7285 10.1711
1 45.45 6.09372 36.5756
1 5.95473 8.67683 28.4051
1 2.97431 16.964 1.08981
1 43.0363 43.8419 12.2095
1 38.4686 9.59744 7.18642
1 49.1592 35.9968 36.9369
1 10.8473 34.069 21.8765
1 7.74368 0.650288 8.96666
1 23.6852 13.0663 11.8856
1 24.5634 45.5833 12.9522
1 47.9229 5.06225 10.1384
1 13.2312 6.35814 17.0502
1 20.8563 22.6565 5.06806
1 42.7199 31.1741 23.2795
1 46.7795 25.3155 37.2399
1 48.0187 16.3758 8.36757
1 24.9985 16.4413 3.91087
1 25.5054 35.8952 15.521
1 8.96701 17.6268 5.19335
1 34.7455 33.9017 27.0277
1 41.2308 12.8062 45.2357
1 47.1983 44.7288 1.61841
1 8.57132 28.4857 46.715
1 35.313 49.6869 4.67182
1 49.1007 13.8343 40.1238
1 27.4804 33.2588 25.9613
1 8.88722 5.8151 42.1294
1 24.729 1.1861 42.8371
1 7.06752 20.4508 30.0742
1 43.5345 25.1166 13.6303
1 18.4411 13.8056 49.5262
1 39.2437 27.4482 16.092
1 13.871 30.1864 39.3402
1 0.312631 22.4479 9.93366
1 43.2049 8.75451 8.5229
1 8.93804 21.1203 45.2166
1 3.2021 6.55631 23.6472
1 19.301 44.8665 44.0386
1 17.8945 47.1911 43.0504
1 15.3988 5.75188 7.11365
1 12.8977 5.3993 23.6394
1 45.0582 39.8417 35.2806
1 28.8109 13.467 43.1273
1 33.5992 46.2928 7.36284
1 11.6759 49.6212 41.0316
1 10.9459 17.1614 7.63175
1 32.4702 6.68858 48.7776
1 15.741 7.50474 9.08101
1 47.1777 1.42143 25.1763
1 46.2699 13.0982 42.2821
1 16.7685 49.5581 17.6009
1 45.2821 3.45282 25.7893
1 28.939 18.509 9.77169
1 47.7888 18.0394 28.4181
1 26.5336 21.6655 16.9479
1 16.4899 9.87621 40.4385
1 41.4363 30.9347 49.5323
1 21.4848 44.452 9.42379
1 46.2983 45.7358 4.37612
1 4.46951 22.7224 45.7053
1 49.1391 41.3056 5.59963
1 20.4253 23.3077 13.6553
1 11.5368 39.8903 16.9922
1 21.0489 43.0206 13.7887
1 10.0752 40.4619 14.3696
1 9.21587 31.4969 14.867
1 10.0924 23.0396 11.7748
1 26.9991 16.4963 30.81
1 21.8932 1.86606 27.9533
1 17.4629 21.0895 37.6532
1 18.5505 43.2617 2.32798
1 17.1421 0.95088 13.4647
1 41.2684 13.8443 9.26274
1 5.32055 38.6065 35.0784
1 30.657 17.5398 37.9807
1 28.3794 30.091 16.9232
1 5.07616 11.7743 0.180108
1 3.74216 36.2554 1.5862
1 25.8365 17.2053 35.0055
1 1.3145 2.20063 46.1817
1 1.08211 12.9462 47.8419
1 13.0651 11.088 44.0383
1 4.35807 17.5174 3.84364
1 39.9587 49.8236 35.6138
1 1.64574 39.9497 2.89442
1 19.9497 27.4638 47.7066
1 28.004 41.1691 28.7637
1 1.3723 31.3355 24.8423
1 14.6433 49.0212 27.5508
1 19.4576 42.1988 40.1316
1 34.7121 7.86744 6.42255
1 17.5906 34.5543 19.8034
1 0.685985 13.4266 12.1844
1 12.0226 29.6375 46.0713
1 40.3269 4.22947 45.4103
1 28.4991 22.9405 4.61266
1 29.005 11.9299 0.615736
1 37.1015 11.5939 37.6912
1 37.2537 1.69592 46.4049
1 9.94577 24.9275 42.8902
1 23.9189 18.8745 6.72496
1 43.6313 27.5259 3.03973
1 46.4306 6.41904 47.57
1 46.0166 2.07269 45.3167
1 4.50875 15.686 12.3639
1 38.1524 32.257 40.411
1 21.1715 37.4687 26.6367
1 39.2249 37.1985 34.1486
1 24.9597 31.5489 40.9717
1 24.0739 21.176 21.4754
1 23.5373 43.53 6.34102
1 16.2695 11.8005 14.8975
1 28.6562 16.3439 21.2627
1 2.22987 8.03884 2.17422
1 2.61129 20.3816 13.3669
1 42.3485 3.48247 17.4337
1 10.3141 24.6811 3.42015
1 30.9131 24.361 40.7228
1 33.5765 20.5851 35.7594
1 28.7988 18.0839 5.41599
1 5.06806 25.8858 40.6464
1 37.4729 16.2407 6.9855
1 42.9017 13.5126 43.0545
1 15.0804 10.9957 47.2516
1 41.4659 2.41091 28.6184
1 13.1958 19.5524 18.1569
1 15.6339 37.2919 27.2037
1 38.6264 24.0886 39.3862
1 48.7497 28.675 41.5713
1 46.7574 9.10597 32.9745
1 16.7423 12.8567 4.91586
1 1.20233 37.5582 31.3874
1 29.1003 11.1855 33.5198
1 7.54413 21.4689 36.6273
1 43.9828 32.5004 44.0431
1 48.0843 12.4486 30.7011
1 33.6076 11.0142 3.90237
1 46.9906 39.754 32.6558
1 27.2659 26.508 43.3077
1 -0.00734098 27.7168 2.02664
1 48.4003 13.9466 26.6555
1 14.3173 7.68156 5.20247
1 46.7364 38.3014 18.7094
1 44.3995 43.7172 5.32496
1 19.0053 35.3343 45.4267
1 10.7273 23.3774 47.011
1 21.3989 33.3118 31.7665
1 4.40251 16.3334 6.07637
1 15.7806 21.4491 30.3452
1 42.594 13.1537 36.3375
1 15.9403 20.6587 10.0925
1 5.17795 11.831 34.2533
1 24.2718 20.4065 43.2064
1 42.5515 0.872857 35.5744
1 14.0866 39.9095 37.0388
1 27.0811 29.0387 23.0892
1 0.489654 16.6158 35.6442
1 31.7902 4.41643 21.8486
1 8.76252 43.5841 42.1893
1 38.7636 25.1396 12.0223
1 11.1921 49.3033 43.8215
1 24.6962 46.9548 39.8713
1 28.4106 8.78001 14.6066
1 10.2026 7.13735 44.6847
1 6.11318 24.2 19.5628
1 3.04106 24.2941 20.3517
1 23.8103 39.1021 4.78993
1 17.2759 22.2799 22.477
1 15.764 7.85227 36.2592
1 27.1855 34.234 23.2088
1 5.01584 35.3619 39.7652
1 31.5285 19.586 29.5228
1 19.1256 41.2711 36.6779
1 20.2812 9.71749 16.3315
1 28.7183 15.807 7.35513
1 45.6354 5.3549 13.7178
1 1.95086 34.6601 45.2833
1 36.7521 34.5884 31.0684
1 6.75176 48.838 1.46139
1 23.9499 48.898 19.1342
1 34.5223 48.6673 20.6783
1 27.9305 32.8319 7.58002
1 32.271 39.301 47.57
1 41.7465 43.9724 39.288
1 31.2049 25.3832 5.17443
1 2.2838 30.2147 30.1416
1 1.85199 15.2015 39.3629
1 11.7122 18.7948 48.4276
1 25.7788 5.11056 47.576
1 9.0175 2.78186 35.3793
1 4.18503 29.101 14.8353
1 24.3892 41.7415 8.25001
1 45.8844 10.1943 44.8492
1 23.369 34.0728 28.1047
1 3.2268 35.9712 28.993
1 8.83087 15.4507 20.8322
1 9.37915 33.2929 34.4761
1 19.2055 40.3703 30.5088
1 16.3743 31.198 10.3261
1 0.562191 40.986 40.1712
1 34.922 13.8537 43.8029
1 10.3633 27.7079 5.45369
1 9.83767 13.0194 0.13898
1 47.9086 48.3424 10.3627
1 44.3415 5.05626 39.915
1 43.3365 37.1126 18.5885
1 10.8341 7.38427 6.80585
1 28.6405 40.9511 24.1055
1 8.25534 34.0033 10.5854
1 0.859575 0.0351893 13.4718
1 4.25927 35.9618 5.60758
1 3.3488 32.9205 21.2081
1 2.37792 15.1676 34.0539
1 15.8535 46.9936 6.31384
1 16.8507 13.0294 47.2188
1 22.6839 14.5055 2.00777
1 32.4208 3.15819 30.2041
1 39.1396 41.5586 42.4247
1 45.3346 32.4701 38.2746
1 39.9596 14.9112 18.2174
1 11.882 36.645 44.8192
1 11.6963 8.86595 46.6386
1 2.88342 8.62245 42.5365
1 49.5853 7.41515 4.05528
1 15.6907 38.2558 7.21983
1 19.3567 24.8313 48.696
1 30.2424 38.611 41.8002
1 34.5882 11.2235 45.0539
1 3.72752 49.0697 37.5567
1 10.7156 48.8298 11.4055
1 46.8279 13.3986 28.5503
1 0.338617 46.8068 41.4778
1 6.57378 28.3437 41.4635
1 14.0467 35.3558 33.7917
1 47.9106 6.2457 14.23
1 21.8757 13.7656 24.8275
1 5.86444 34.9967 16.1254
1 13.4377 26.7104 27.1397
1 42.0969 31.536 31.3682
1 38.4328 32.2238 15.95
1 25.9009 22.134 33.964
1 14.8098 47.3741 17.1068
1 36.5557 32.3881 29.0987
1 1.93395 3.47709 43.9936
1 39.6765 47.2196 12.2328
1 19.4457 24.3161 28.8002
1 18.9579 47.632 33.1462
1 29.4323 28.1602 24.3834
1 45.5544 22.8737 13.0929
1 19.0962 6.31951 41.9025
1 38.7572 20.0004 2.20287
1 3.49731 6.61659 8.17168
1 36.2008 26.8139 15.595
1 11.7812 31.7053 4.5709
1 25.9834 49.5803 31.8202
1 37.8531 44.346 26.4634
1 19.6159 24.3443 25.9507
1 7.18132 6.58742 33.3927
1 15.9047 49.6721 29.7749
1 2.26105 28.7697 1.87732
1 37.2472 17.5651 43.0804
1 5.7687 10.6517 23.2335
1 32.0775 9.05132 40.5451
1 40.0965 42.1905 16.6682
1 48.9262 2.45032 36.7382
1 40.9375 49.4382 15.8893
1 23.6762 44.3749 35.4153
1 3.09195 30.3166 12.2677
1 32.7064 48.8512 1.98905
1 42.9646 9.40044 34.4417
1 33.6193 38.1897 2.10357
1 0.309546 23.7241 26.1712
1 27.6029 46.2237 34.0922
1 34.7915 18.6016 47.1348
1 17.109 4.06003 5.99671
1 8.80008 28.9288 16.1391
1 29.937 20.8628 2.8917
1 45.0792 29.859 16.8256
1 48.9478 38.0124 33.3854
1 28.2304 49.0716 19.5368
1 42.1498 37.1416 41.2271
1 42.0404 32.9617 17.1877
1 3.60879 37.4623 12.7282
1 41.4288 45.4644 46.8476
1 11.5464 39.4802 37.745
1 35.1617 36.5571 45.5534
1 13.1394 3.70325 27.4282
1 39.2779 4.73057 49.6135
1 9.09181 28.8631 1.95481
1 14.3303 37.443 2.29004
1 40.837 24.261 15.3124
1 44.2743 13.2215 33.5406
1 2.48844 14.6582 46.2129
1 44.1495 30.0684 10.5627
1 36.7698 42.7632 10.6368
1 19.3638 13.839 36.6866
1 7.65996 14.6474 8.74758
1 24.2468 33.0146 23.4298
1 32.44 19.7643 0.155576
1 12.708 14.9005 39.1178
1 16.3474 2.80031 21.4856
1 48.9341 27.9513 30.2845
1 9.329 45.4463 33.5664
1 2.78808 27.3558 25.0073
1 19.4621 23.698 1.53618
1 33.3458 19.6569 8.32684
1 11.5817 4.32751 16.8969
1 3.99014 0.187064 0.754294
1 38.9936 9.46801 23.2557
1 27.2234 20.6821 32.3124
1 45.8713 49.7642 41.184
1 28.8329 5.83758 29.3818
1 33.4674 28.8152 46.5499
1 31.0109 9.27328 13.9502
1 9.85466 38.567 9.68047
1 6.71827 12.7903 26.19
1 31.2553 41.2334 12.8062
1 10.1012 10.1543 10.1746
1 1.3128 38.2881 18.6486
1 11.9717 0.709242 19.7904
1 45.2022 26.0115 11.5443
1 15.5951 28.9655 9.50725
1 9.31437 19.6074 20.1184
1 14.8423 42.3493 35.6127
1 42.0737 23.3039 40.0357
1 30.0821 45.7841 14.8535
1 1.07996 35.2407 25.9606
1 14.9383 35.502 20.4595
1 42.7048 34.1494 2.86524
1 7.9141 17.1085 47.8563
1 46.3987 22.0566 39.8244
1 19.3698 32.6966 30.0525
1 13.3458 47.9875 38.0884
1 45.6783 38.396 3.85647
1 48.569 26.5765 17.7726
1 0.389722 20.8101 45.4355
1 28.87 26.4844 32.365
1 28.143 5.02448 7.56375
1 27.2799 38.107 5.90133
1 18.7631 32.16 20.7637
1 20.4272 24.6307 8.62807
1 34.0211 20.7916 11.4845
1 8.60196 17.9117 34.3893
1 20.5393 34.8847 23.7884
1 9.19863 27.5078 42.4321
1 17.7991 40.5443 14.8553
1 42.5583 29.1528 36.3505
1 36.8105 37.3227 29.982
1 11.9398 26.3127 9.53925
1 39.2176 29.8259 40.8037
1 36.6179 49.0021 1.56769
1 4.95997 7.02263 34.9502
1 15.1722 44.5537 4.81723
1 39.2995 7.80679 15.794
1 29.1512 7.25393 0.607157
1 0.801778 2.05241 2.65784
1 26.4595 44.7729 48.9033
1 29.223 0.229219 34.3347
1 34.4771 22.6404 19.7873
1 3.68055 9.92318 5.31897
1 2.99824 7.66641 31.7447
1 18.2714 4.62623 1.9778
1 2.63739 33.8152 39.4602
1 3.03344 32.6836 43.5236
1 44.2759 20.9651 42.6356
1 41.6569 41.4639 18.9513
1 13.4761 39.0562 4.3762
1 43.6784 44.4096 26.429
1 17.6503 24.948 34.6907
1 18.8227 0.664563 6.09775
1 6.21484 28.3641 17.8779
1 35.8257 0.43703 22.9785
1 33.8661 16.1503 37.0875
1 31.9674 40.9877 36.7529
1 16.6113 10.0265 1.89035
1 19.6073 32.0841 5.48964
1 49.7978 31.9304 1.18111
1 2.83701 3.81771 13.0051
1 41.016 -0.0088128 20.4869
1 36.7745 46.6353 30.4369
1 24.1248 2.50411 10.9246
1 15.1313 41.0641 7.97161
1 44.0911 41.0357 30.0452
1 12.1295 24.1198 13.2784
1 8.1752 7.78206 6.12432
1 29.7635 30.6174 33.1636
1 38.4858 11.1711 24.9949
1 8.36135 13.7679 2.0038
1 21.2646 15.1526 22.5886
1 45.2963 8.15413 22.216
1 15.1816 27.0213 38.2455
1 13.1131 26.7112 15.8266
1 10.8837 35.4622 3.10608
1 46.2401 28.3018 42.3798
1 41.1713 25.253 9.07059
1 0.820996 31.1403 7.18361
1 22.8267 17.6945 13.606
1 48.3356 5.69362 32.6849
1 22.3617 26.9315 16.5525
1 28.1514 43.9684 19.6775
1 30.2868 49.4301 11.1462
1 6.58115 41.1014 12.874
1 47.5719 10.4334 8.63819
1 0.00249266 6.29533 18.9832
1 41.4194 8.91128 27.4238
1 35.6441 36.2999 39.3456
1 11.7962 32.8607 9.29135
1 4.68427 41.0483 19.944
1 47.1722 41.5689 21.8798
1 43.8622 36.2535 31.3267
1 18.2982 30.5986 3.15575
1 42.2569 36.7105 24.0935
1 26.5325 12.9405 1.34179
1 39.5714 41.6524 23.2479
1 8.89515 9.52888 1.03156
1 39.8061 18.2621 43.8046
1 17.0784 43.233 15.5309
1 36.4869 29.1655 10.2777
1 25.5801 19.8442 11.31
1 19.2355 1.42379 26.6493
1 45.0006 21.3979 17.6201
1 26.005 8.52617 23.3025
1 32.351 25.7568 44.6696
1 39.2156 30.2102 17.322
1 41.2647 25.3514 29.2236
1 34.1146 25.6713 3.22138
1 13.9131 42.478 13.3081
1 4.52232 27.4498 8.86205
1 18.0474 35.9843 25.8325
1 22.0679 26.1744 33.4945
1 32.1324 29.4027 8.79378
1 2.88713 0.341539 15.2408
1 30.291 46.8675 47.8214
1 35.6756 49.7607 26.6653
1 38.7672 24.9659 17.4093
1 5.90655 26.537 1.64403
1 7.17326 8.44083 15.7372
1 15.2148 45.1852 2.04271
1 25.8899 43.2802 21.702
1 35.7887 29.8638 1.38797
1 3.13695 1.45514 24.4777
1 48.5379 29.9654 39.0842
1 14.4842 31.0596 43.8403
1 25.4844 23.0178 26.3532
1 46.3775 47.9391 27.6678
1 11.1759 39.1858 45.9803
1 1.3288 24.0656 36.4012
1 35.2315 35.3017 2.04526
1 12.9164 19.4557 12.6111
1 18.1604 41.597 10.6802
1 12.0838 30.9326 48.7086
1 12.7648 28.0788 19.7755
1 3.40946 31.0327 39.6402
1 12.3679 9.65434 5.94632
1 39.5123 44.9112 20.9064
1 16.8062 4.14873 16.1464
1 5.10209 7.4716 20.3482
1 21.2286 27.2057 12.7202
1 42.8726 27.4347 9.90458
1 10.2483 22.413 9.1686
1 31.7695 40.1353 18.4373
1 2.5963 22.4568 11.8627
1 23.2319 21.1356 49.7523
1 5.38516 37.6347 30.3687
1 43.1814 29.6482 14.7932
1 42.5893 26.8928 38.0528
1 47.9115 34.5961 4.15093
1 35.9116 49.1889 46.3737
1 36.4316 3.44969 24.8247
1 9.6574 7.86136 20.6582
1 22.2174 39.1211 40.619
1 22.4173 46.7451 18.0842
1 23.0138 49.1474 24.0458
1 17.8347 3.13023 37.3873
1 24.2406 5.68067 0.876266
1 3.65566 37.2129 9.60355
1 16.6082 29.0376 22.7452
1 5.18282 49.3625 14.0298
1 18.2319 13.1035 30.7005
1 21.6543 19.5538 30.2968
1 31.2002 33.4275 5.72242
1 44.7106 30.9522 6.6865
1 34.4836 26.5913 13.086
1 24.1675 46.4873 45.2526
1 45.8541 29.2278 0.111052
1 48.2544 7.51823 49.1355
1 48.6861 39.1597 11.2441
1 37.2933 29.4248 35.6037
1 49.5677 36.447 39.7693
1 32.7836 27.6447 28.523
1 6.62645 40.7889 23.939
1 46.5854 11.7816 13.1649
1 41.3138 40.9055 36.2962
1 27.1925 22.2717 10.4534
1 42.7984 6.71052 37.2739
1 1.44339 25.8319 44.5446
1 6.6789 18.8169 20.6576
1 48.7626 23.9279 17.1905
1 4.2353 8.42958 12.2535
1 35.8486 5.91722 24.0012
1 33.0102 41.9054 23.3583
1 3.77144 47.8775 19.0341
1 2.15736 22.5903 27.7334
1 6.13093 26.4398 13.2858
1 13.0955 7.3538 33.2332
1 25.982 29.8905 32.1942
1 32.5186 27.1995 10.2708
1 25.686 44.2364 8.61483
1 30.7608 40.2111 26.3696
1 14.0354 17.3474 28.6773
1 34.9724 27.6328 20.0088
1 36.2448 14.0188 5.77186
1 45.9887 31.2606 30.5743
1 20.3049 37.4591 22.767
1 4.54171 17.3775 26.6761
1 0.269921 47.9455 22.4521
1 3.34722 15.8013 15.2138
1 38.8329 38.8182 43.5493
1 4.84168 18.73 29.6631
1 37.8162 20.8333 26.2433
1 32.2558 46.5042 49.5819
1 32.384 32.3085 23.9621
1 3.93481 47.7518 10.5085
1 46.5238 44.5302 34.8796
1 19.6912 39.5108 40.4824
1 33.3522 12.0728 25.8567
1 40.9903 41.3007 45.9448
1 46.8818 5.59234 25.2247
1 23.1342 21.9758 30.8962
1 11.7474 44.9658 11.444
1 32.0156 20.2909 17.7292
1 31.2542 35.0062 31.2241
1 46.9431 38.3743 26.1888
1 43.6448 28.6482 28.175
1 21.6972 24.0054 32.5077
1 39.9435 30.9708 29.2904
1 0.399012 26.3811 42.0144
1 3.24993 33.0311 26.0345
1 49.6215 47.6565 17.225
1 27.4674 7.02637 25.0947
1 37.517 37.3628 41.1168
1 41.9606 2.52286 8.09761
1 5.03723 23.24 41.7285
1 33.6187 0.617046 34.3843
1 45.7498 36.886 1.13966
1 22.9285 46.6108 22.9661
1 15.7641 4.35672 23.7567
1 32.8696 46.1843 40.9502
1 12.9418 17.3821 9.66316
1 11.055 27.3974 45.3129
1 47.2131 10.5938 41.4898
1 38.2961 30.9718 19.8069
1 2.66646 19.5352 26.7957
1 19.4325 49.5175 31.0182
1 12.9523 25.277 20.0508
1 29.0833 13.9585 22.4704
1 6.75793 30.496 32.2724
1 16.8311 19.1355 6.23968
1 9.10014 28.0459 23.1853
1 30.6736 40.7288 40.0261
1 44.3593 8.62274 1.69327
1 16.117 49.1483 46.3934
1 15.0998 17.4869 13.7909
1 3.78752 46.1488 30.2848
1 30.5071 29.1582 5.10166
1 49.3673 21.1262 2.40377
1 17.0377 13.5139 10.3608
1 20.0332 27.2878 29.3805
1 14.0717 41.015 17.7835
1 48.7228 9.20544 26.1484
1 10.1335 29.3953 18.5782
1 7.7447 39.0965 41.0158
1 14.6377 46.2159 27.9307
1 4.77327 15.1341 8.57384
1 2.62848 17.616 30.8462
1 48.6948 20.5716 11.2726
1 29.3278 35.6582 5.9194
1 5.95994 49.7868 6.89953
1 17.1257 16.7649 42.3007
1 45.5388 30.4929 13.3387
1 36.0103 10.4706 26.0424
1 42.5793 22.4241 0.249754
1 10.0612 42.3544 18.1688
1 8.64497 6.07419 35.8456
1 13.678 30.1534 29.2858
1 4.01379 40.3729 15.9122
1 12.9472 27.0671 12.683
1 47.635 38.2361 7.98094
1 15.5025 47.5117 22.4545
1 8.36023 40.661 34.5266
1 30.7845 33.5884 20.892
1 8.37262 4.81381 9.08775
1 4.39101 4.7013 19.8417
1 34.0457 14.4959 24.4923
1 45.9772 48.9384 36.786
1 39.7049 16.883 29.8594
1 46.214 35.77 10.7996
1 28.0731 23.3381 46.0974
1 11.7036 39.6303 31.4584
1 44.577 3.21992 35.8773
1 45.6979 0.52 48.165
1 45.0322 49.6061 29.4257
1 48.4968 1.98821 22.7132
1 18.2684 38.5285 24.2226
1 32.1245 7.56031 38.1552
1 7.79473 43.1724 19.6811
1 11.2214 27.1733 2.96565
1 4.99722 26.7734 15.9551
1 9.20676 44.3274 10.7512
1 17.4321 44.2576 41.5566
1 37.5509 39.592 20.4786
1 32.5394 0.55255 19.9744
1 48.6315 37.408 22.2286
1 27.743 46.8259 23.2315
1 9.66652 36.563 14.0894
1 45.6421 38.497 48.4422
1 28.0821 2.59419 43.8624
1 21.4911 8.90243 21.923
1 20.942 34.4405 7.00596
1 48.7229 37.8655 42.5086
1 44.662 2.41827 32.088
1 35.3367 26.8845 33.9079
1 13.0562 44.6396 24.0806
1 39.402 32.4688 38.1192
1 14.4304 14.112 43.2134
1 8.57976 17.12 27.9662
1 6.33478 29.2019 1.05339
1 27.3882 32.7753 39.2974
1 44.0485 16.1081 38.9517
1 1.96159 8.10608 36.1683
1 20.9598 37.2658 47.177
1 39.9805 32.1913 33.4973
1 31.4185 28.1453 0.976049
1 31.2789 15.9403 41.7664
1 31.7605 15.4801 32.7221
1 21.4618 42.76 38.4118
1 4.84586 26.6775 46.9878
1 35.6823 31.6371 18.3659
1 44.4077 24.4196 32.62
1 11.3561 2.41188 36.6363
1 48.6893 2.7525 11.3111
1 21.1963 36.666 33.0985
1 47.8978 35.8694 15.8122
1 23.5158 43.1539 47.0898
1 20.8504 20.5298 4.14975
1 9.13861 37.0488 18.6569
1 0.567055 16.2431 1.11639
1 28.1187 25.1339 10.364
1 22.3296 28.3246 49.252
1 37.4611 7.00642 42.9411
1 15.2189 43.9522 45.2925
1 7.57779 30.4747 11.7732
1 36.2622 5.51131 46.5187
1 19.3798 29.9459 26.4163
1 39.3976 0.199631 5.72504
1 10.2054 26.2332 24.7806
1 6.13039 45.2852 45.728
1 5.38607 2.3809 23.5259
1 4.98873 49.301 27.7371
1 44.6254 4.27636 46.5584
1 4.44893 28.2755 36.3051
1 6.38254 15.9381 28.8612
1 7.26614 11.4409 28.6361