4096
 Atoms. Timestep: 200
1 40.6095 17.6069 40.8769
1 12.6152 6.87044 4.9137
1 25.7973 15.9843 15.6584
1 34.9011 1.69071 42.1794
1 18.9961 8.41846 29.5975
1 37.6299 21.3332 25.4571
1 18.4403 46.5501 31.3921
1 46.8002 18.2933 44.1858
1 7.13095 7.10021 25.5686
1 26.7108 1.306 18.0308
1 15.9793 2.60156 6.35668
1 26.4416 30.2759 8.43215
1 43.8425 22.0519 37.3594
1 18.759 36.1095 15.4008
1 35.412 30.6974 47.7847
1 37.4281 8.63795 14.9423
1 49.4758 49.171 46.5434
1 44.4777 3.30434 21.1824
1 8.3388 21.7752 38.8628
1 49.3584 26.9594 17.9467
1 45.3883 13.5674 20.2585
1 27.2018 35.3832 21.5205
1 16.6706 3.7844 3.5985
1 31.7954 12.3861 9.54194
1 45.2624 6.59829 10.0782
1 11.2582 10.5722 3.65752
1 8.50547 15.8188 9.31138
1 48.993 12.504 20.6357
1 15.7237 7.4237 41.6938
1 16.1967 35.1615 48.1577
1 41.6439 0.787203 6.7344
1 31.1888 8.23833 1.09813
1 40.7424 14.8109 25.8014
1 14.8596 2.60367 13.5689
1 1.62392 42.6525 45.8953
1 33.6664 1.72777 47.2309
1 48.3683 36.2001 37.9905
1 20.9697 9.04191 40.2681
1 11.8861 21.5918 39.8434
1 1.02986 27.1433 6.22315
1 26.9106 42.9673 42.1786
1 34.9281 25.854 31.7641
1 21.9764 8.21997 21.4325
1 23.9283 36.9315 1.39856
1 14.8819 21.1705 11.7228
1 5.73979 43.8551 27.7389
1 14.9658 20.1064 47.844
1 44.322 6.29877 1.04354
1 27.5237 7.02442 11.4977
1 0.688594 13.7539 49.6335
1 3.94447 21.8636 16.5348
1 47.439 9.16217 41.7558
1 9.93212 16.2343 36.7154
1 7.55565 48.7022 37.2344
1 33.2636 40.5708 2.71061
1 24.1462 12.0036 12.6158
1 17.6005 6.45006 22.7409
1 18.649 49.3143 6.59139
1 26.072 14.4714 37.9435
1 7.00192 10.547 21.5634
1 29.1646 12.7263 13.9993
1 3.08351 15.4038 25.2879
1 4.942 11.5414 13.4712
1 21.7068 5.99964 1.78513
1 24.943 32.6658 49.3988
1 2.80807 15.0487 43.5608
1 36.6935 48.1866 4.74492
1 48.9631 8.32853 11.5232
1 11.0676 43.1324 6.69424
1 3.0038 47.4171 12.811
1 5.4203 38.6235 4.01267
1 25.257 11.2029 45.9251
1 13.4819 33.2675 22.3009
1 46.2248 22.8177 48.8382
1 46.8694 21.7919 46.6973
1 10.9506 14.628 10.9724
1 23.1937 29.0256 35.4779
1 41.8025 33.2343 34.878
1 24.711 26.9612 36.7254
1 12.9767 45.1281 20.5464
1 42.3214 5.64305 33.1435
1 30.7533 36.174 42.5542
1 3.28896 38.6199 30.3586
1 17.6683 14.0097 7.69164
1 16.5978 43.1148 46.6632
1 23.3073 40.3687 39.3737
1 19.2481 1.2578 0.835998
1 29.8119 20.582 15.6998
1 13.5609 3.17136 2.12507
1 23.6926 17.0652 22.2867
1 42.4596 1.52599 9.20233
1 46.6001 18.6103 14.0637
1 18.8999 35.9245 8.51607
1 44.9348 8.46447 14.1868
1 35.5071 16.2804 39.6488
1 7.40308 44.6286 5.67301
1 28.9488 20.6082 28.6732
1 19.8591 48.4109 35.0877
1 36.7932 14.9834 7.21393
1 49.4095 8.54037 4.83533
1 43.3853 3.15863 47.4149
1 34.258 37.366 47.888
1 4.27555 7.82708 43.9661
1 26.6022 24.7864 18.7452
1 5.76788 32.3629 6.19786
1 40.7484 16.2827 44.9096
1 33.3147 9.3721 15.5193
1 18.9657 18.9522 32.6506
1 32.4256 24.8367 46.6036
1 27.3788 47.4961 1.61641
1 19.1413 48.0504 24.3743
1 7.36498 42.2733 38.7968
1 42.9483 39.7879 2.78607
1 3.42579 25.7723 22.0574
1 20.5454 48.7198 30.5846
1 34.2647 7.85671 4.57916
1 15.0793 18.4955 8.67331
1 3.6705 25.4764 42.316
1 31.0133 34.4293 11.967
1 42.9867 3.89653 27.9987
1 16.0206 35.1345 18.1992
1 9.96347 11.4774 31.0193
1 27.6698 39.4194 19.1373
1 10.7392 26.6676 3.27572
1 1.48922 46.2046 23.4607
1 44.5539 19.2212 8.34757
1 9.60741 49.4042 44.7059
1 7.35724 42.0008 9.9653
1 27.9797 23.4352 12.1136
1 30.5566 33.0565 31.1491
1 44.2808 6.92666 36.1646
1 20.2234 7.96868 46.2255
1 46.1214 36.2803 36.0015
1 7.41709 41.3349 26.991
1 2.58399 38.3248 20.571
1 42.0893 7.63544 1.03523
1 7.49892 0.691996 5.69139
1 26.1498 24.6518 3.06782
1 37.6746 44.4724 29.2486
1 28.0007 38.104 36.1745
1 15.8758 25.8313 34.7961
1 19.178 2.62022 15.4084
1 10.9118 29.6287 18.0031
1 5.16092 3.44917 43.7631
1 32.6259 19.6294 47.2422
1 0.106768 35.2811 18.441
1 42.7417 12.9373 46.6542
1 27.4054 17.2652 13.6667
1 42.4422 35.9802 13.672
1 37.359 16.8118 9.75153
1 4.35413 15.2099 11.2402
1 37.4828 48.1906 2.19909
1 11.4134 25.163 22.9995
1 27.9403 38.3978 11.2712
1 7.98614 14.7489 42.6092
1 17.7534 34.1859 40.1578
1 0.936917 26.7059 30.7402
1 32.0093 39.0899 40.2471
1 12.6677 35.9698 23.2264
1 27.5565 18.4884 17.9678
1 13.214 6.49566 43.153
1 6.24105 47.7191 16.8637
1 21.8289 37.5329 20.6726
1 9.3919 9.59547 44.8919
1 4.073 19.2413 -0.0583618
1 41.9407 9.1574 13.5778
1 30.3746 23.1955 33.0568
1 25.9 0.0449778 10.9798
1 12.8526 45.9426 43.4284
1 4.71886 36.3817 20.4562
1 47.8517 46.0595 40.0739
1 28.2901 0.608714 8.38522
1 9.81223 22.3056 4.846
1 40.1939 23.1147 11.7433
1 13.7693 44.7362 1.76302
1 4.65387 4.94345 36.9645
1 19.4392 13.3616 39.1331
1 10.4827 32.3539 2.967
1 36.7889 17.9689 43.2782
1 24.0715 3.92431 35.5488
1 41.3263 11.9906 19.0515
1 18.0618 24.3365 32.2087
1 48.4403 8.22279 38.0469
1 19.6223 3.38323 48.6519
1 35.3248 21.9304 44.6262
1 11.3994 22.9262 30.3078
1 45.3544 43.2341 29.7831
1 24.9912 10.9344 21.1415
1 12.8131 6.85169 23.7909
1 11.6795 6.96895 15.9594
1 3.7989 17.1983 44.3861
1 18.8216 15.6287 19.7453
1 1.05212 47.9609 18.063
1 1.90549 42.5988 32.1607
1 45.9735 6.46641 7.49212
1 4.56046 13.074 45.0404
1 0.552116 16.2317 29.0113
1 41.5873 18.3127 24.8066
1 4.64417 8.47245 2.41954
1 28.3205 10.4082 15.2648
1 26.0014 16.3586 21.0548
1 33.6418 3.61751 1.24491
1 18.3004 8.11214 34.5276
1 3.60696 35.6097 24.9688
1 27.7478 18.0196 34.6391
1 35.4182 4.46901 34.8103
1 14.5064 12.8863 32.6074
1 25.2156 37.205 6.05836
1 44.924 15.5301 31.9107
1 22.8571 11.8331 5.08153
1 49.1039 0.0359131 30.5666
1 16.5371 42.0796 29.8901
1 43.618 8.38575 17.1671
1 2.62074 17.9319 39.9528
1 0.851802 21.458 15.4478
1 10.7712 41.7142 40.9905
1 23.6298 30.0426 13.157
1 13.9091 0.890484 0.243869
1 33.4979 20.1254 14.8578
1 6.71931 41.1243 29.8124
1 28.0689 49.1801 37.3877
1 32.4002 8.96913 21.2577
1 45.3217 24.7252 29.5028
1 34.2028 20.8201 25.3126
1 46.3793 19.0165 38.4128
1 8.32115 32.4757 21.693
1 43.9981 28.5744 30.9554
1 30.6133 32.4073 23.5918
1 11.5036 35.6606 15.5973
1 10.0129 16.181 39.5678
1 29.8888 2.43568 49.3379
1 31.3928 30.8484 27.2486
1 46.3735 48.4315 13.7593
1 25.0037 23.1634 22.2607
1 20.3119 11.6997 36.1343
1 15.0559 45.3295 25.3757
1 1.18348 6.01533 19.5837
1 46.5057 34.8285 2.09816
1 3.63899 38.3417 10.1623
1 48.1509 14.1155 29.7116
1 11.9505 17.4332 19.7044
1 9.34046 3.70418 22.8658
1 35.7543 34.6033 10.4355
1 0.529997 36.4737 24.5671
1 5.5441 45.1599 39.7765
1 34.3939 20.9191 35.5076
1 23.0498 43.7464 16.8708
1 30.1265 36.9918 48.2711
1 14.1275 2.18142 9.89009
1 44.9787 20.6169 4.65469
1 14.441 15.8777 4.50038
1 47.1276 0.693988 46.9487
1 8.39883 1.33126 15.3732
1 23.4508 34.3373 43.7759
1 45.0228 44.2673 32.1475
1 41.251 30.7918 38.5796
1 9.1446 7.83878 31.0369
1 7.51111 22.5574 25.0383
1 10.6691 4.87396 49.0401
1 46.129 19.2774 46.7188
1 7.04653 6.46941 0.664618
1 25.2521 28.2074 39.7369
1 33.7613 5.56519 20.1552
1 39.9557 3.7229 17.0331
1 22.3349 10.9605 19.8513
1 17.4952 28.3976 8.02664
1 8.56175 11.4874 43.3038
1 20.9518 37.073 35.4043
1 14.8186 12.0429 43.601
1 4.52765 20.4895 33.6308
1 33.2828 48.2653 40.5249
1 41.6376 41.0781 49.1335
1 10.4799 32.6321 34.6446
1 26.0399 37.5669 49.375
1 49.2708 25.9119 44.6111
1 8.07247 27.1746 47.3248
1 20.3721 19.1009 22.8514
1 16.5808 2.16501 26.0869
1 23.0938 17.7424 28.0128
1 43.9694 1.71887 35.6421
1 10.033 4.27807 18.0567
1 9.6177 14.1454 31.8395
1 1.79108 45.1357 1.72015
1 43.9658 28.9834 13.9856
1 7.93478 24.7129 26.7484
1 3.30058 35.4994 40.9995
1 33.425 24.1065 40.6986
1 0.814198 24.0547 11.8108
1 23.1979 4.42266 8.15496
1 7.33458 27.8583 3.90237
1 11.5641 26.9508 20.9463
1 43.5757 15.2941 47.9133
1 12.7734 19.9269 31.5141
1 8.13294 40.6172 15.7824
1 13.7821 26.5146 23.9471
1 11.2017 17.876 32.4164
1 38.3455 37.7106 40.0546
1 35.5796 7.09753 23.1102
1 39.5499 16.2664 27.2037
1 16.7875 10.9519 17.6881
1 44.9697 38.142 3.29131
1 33.3839 13.1838 25.6535
1 12.4467 26.1671 37.7803
1 15.6375 48.1244 41.577
1 6.16974 34.3488 4.52385
1 13.5353 46.6982 18.7166
1 8.62823 6.59048 3.33064
1 42.8607 14.0786 29.6391
1 18.2329 12.8571 25.8239
1 16.9175 11.6878 11.9033
1 14.1655 39.6148 3.08304
1 33.369 36.669 37.7452
1 38.5285 43.8194 47.157
1 15.7772 48.2432 18.1619
1 2.28817 32.7918 17.9781
1 13.903 36.9831 1.7776
1 24.969 27.8501 11.9858
1 22.0211 31.2957 32.2667
1 14.4565 21.3979 36.0662
1 31.7137 29.8893 34.2769
1 37.7658 39.1545 22.9168
1 2.60001 30.6418 10.0496
1 15.7065 35.8554 14.5452
1 19.9157 11.4774 43.3445
1 23.4441 30.3483 39.9891
1 0.325518 8.50666 42.671
1 29.8556 39.9755 23.1114
1 3.49548 23.861 0.573057
1 29.3701 49.6188 28.5248
1 12.818 13.3421 15.4106
1 43.0334 40.886 26.9703
1 4.98671 21.6167 25.1283
1 11.4328 18.7571 28.3116
1 42.5439 12.0658 13.1693
1 27.2772 6.42578 1.05637
1 25.4891 15.7172 46.8432
1 41.8466 25.2073 6.55964
1 23.9745 0.386021 42.5304
1 10.0118 14.8262 48.255
1 34.0306 41.267 27.7228
1 22.9022 8.55824 1.51284
1 14.0283 45.8921 4.91388
1 19.9155 25.8676 49.1201
1 0.823598 30.6166 33.3539
1 13.6848 36.9474 16.085
1 22.9192 45.8583 20.3703
1 19.5972 8.6352 14.1265
1 5.01987 33.6513 26.9357
1 39.7603 47.2786 23.2851
1 5.37781 23.9588 28.6554
1 31.8475 9.45748 23.9667
1 42.7369 13.9294 33.8529
1 45.4203 25.4729 40.5882
1 11.4732 49.8052 46.4248
1 14.3867 6.59764 26.6017
1 40.6218 1.28727 21.6153
1 17.9589 11.0077 14.7786
1 7.95359 34.4892 12.4081
1 19.4825 15.3541 36.6966
1 33.6621 36.0017 31.954
1 12.4261 16.5442 2.99626
1 12.1412 27.5506 30.2053
1 45.3523 14.8067 15.6381
1 26.6526 15.8566 18.3428
1 47.7468 15.2131 19.4978
1 17.7492 26.2891 26.1699
1 43.5539 44.5325 9.69574
1 9.60018 42.9788 37.392
1 26.4619 37.1382 15.7267
1 5.68631 46.8026 30.6764
1 4.89533 33.5401 42.1198
1 23.3651 44.3428 8.54866
1 34.1394 15.6228 4.08492
1 46.4064 14.3993 36.7062
1 11.9032 33.6113 13.8184
1 10.785 15.004 19.0043
1 7.90662 40.527 5.53158
1 4.71723 5.06365 0.594558
1 18.3832 12.8942 22.5031
1 1.45312 1.24643 15.3571
1 43.6982 16.4313 16.8814
1 29.6485 2.25549 30.5316
1 13.0925 20.7405 42.077
1 43.8187 10.3933 7.88458
1 49.1459 8.49827 25.9715
1 21.8991 37.2382 32.7731
1 10.0469 6.53384 46.1176
1 12.7728 24.5142 11.0455
1 11.7545 8.85702 43.0712
1 9.01419 10.7486 48.6781
1 44.617 28.5057 3.422
1 16.8 30.6003 44.8408
1 25.9606 0.209448 2.08142
1 33.102 9.74597 0.188455
1 12.8611 6.43532 12.6694
1 13.0676 25.2205 14.5274
1 19.7831 25.1533 5.5193
1 29.8031 0.865346 21.2773
1 43.3357 45.912 14.0623
1 10.8114 14.3337 26.8788
1 14.9536 2.68125 44.012
1 0.83886 47.6693 27.159
1 4.01762 11.578 20.5558
1 29.2203 16.4369 43.1695
1 15.3601 6.63712 16.7764
1 6.44902 6.2739 42.861
1 4.7187 21.4173 12.0783
1 25.6634 6.21609 35.7634
1 48.0581 -0.225156 21.5511
1 21.7073 15.7244 16.0466
1 1.45695 12.3308 31.4978
1 49.6191 4.47738 17.6727
1 22.4923 40.3179 20.186
1 9.17052 37.5428 45.2665
1 47.4388 0.0557879 32.6246
1 1.48073 22.4377 38.2559
1 15.4099 0.0717457 13.1536
1 27.427 35.9418 47.9751
1 21.9425 13.0611 27.407
1 11.0048 35.8829 25.5166
1 4.65074 7.003 25.4221
1 34.6886 17.2707 29.8328
1 41.469 42.2239 30.7541
1 9.3387 4.54567 12.4005
1 48.1396 32.8257 25.209
1 12.6098 38.4346 33.505
1 16.5429 4.31255 29.1978
1 20.9868 2.9455 11.1744
1 48.0087 43.5301 29.3545
1 39.6412 24.345 47.176
1 19.9072 36.3438 39.8148
1 34.7578 47.5901 10.4229
1 41.4571 41.5923 13.3491
1 22.5135 38.6123 3.02332
1 40.5497 1.40144 18.7766
1 12.9768 43.0156 3.97588
1 7.86547 33.5754 38.781
1 18.9941 20.5722 18.4404
1 4.27131 14.8196 30.147
1 49.4861 47.0661 15.2975
1 3.96751 37.5105 33.4112
1 7.99508 37.4156 9.21453
1 5.02961 3.92517 21.6493
1 8.59308 6.56059 18.7117
1 25.6497 5.57981 26.6469
1 21.1395 15.6607 27.9585
1 7.53726 5.74323 31.7026
1 16.504 21.4928 45.9726
1 40.9952 22.0647 3.22289
1 27.4305 40.9341 30.7853
1 5.04197 4.23126 19.0781
1 13.8894 48.7502 27.8701
1 4.16857 5.10395 46.0149
1 32.8899 18.9603 33.3341
1 40.1772 10.7379 27.5962
1 44.9702 37.4522 38.8023
1 11.6662 31.3338 42.4109
1 9.94791 38.8204 28.7302
1 32.0975 46.8041 32.4303
1 33.7552 3.73555 27.4952
1 29.2452 6.18871 28.469
1 12.1754 29.0789 41.1545
1 40.2136 47.0269 47.8941
1 40.5872 3.50794 2.7997
1 26.9128 11.7314 31.5931
1 39.3344 10.1964 18.4153
1 18.8859 7.83021 41.0497
1 29.1696 28.6101 29.455
1 19.2991 27.0821 1.61765
1 28.7997 34.9352 32.0111
1 33.1638 21.5891 20.2346
1 2.27886 11.5421 8.01901
1 37.9611 27.0913 23.5955
1 41.8689 48.2481 36.2057
1 37.0777 26.7574 10.8717
1 0.334186 8.47125 17.6727
1 26.3192 39.1262 44.0675
1 3.87409 4.84836 29.1622
1 12.3478 47.8292 14.6193
1 47.1195 12.9316 43.5202
1 12.5742 16.009 40.2301
1 17.5988 31.2922 24.1727
1 26.4635 1.98192 36.6003
1 11.8093 37.0533 28.0444
1 3.00731 20.1185 43.4656
1 0.532309 30.0355 11.315
1 40.9296 29.2897 12.527
1 5.126 17.5334 32.9946
1 34.3984 15.5623 49.29
1 14.6696 37.7579 40.8293
1 30.2144 32.3484 8.91713
1 31.9163 10.6768 33.4919
1 48.2408 11.126 3.11352
1 32.3976 39.2546 4.98669
1 41.7956 16.0556 31.9473
1 34.1325 43.064 3.0975
1 13.1148 12.5379 45.9761
1 9.1135 11.5637 26.03
1 9.72083 36.5131 7.62702
1 29.4258 19.1349 12.2497
1 0.483009 49.2017 38.246
1 6.96992 8.94486 29.8494
1 3.29387 18.4892 47.1187
1 42.1422 0.0491951 14.881
1 36.8702 14.4156 11.3034
1 3.16888 33.2379 38.6702
1 13.8341 34.1162 25.8126
1 5.59196 2.91661 8.19113
1 26.633 13.0679 12.8006
1 26.9581 44.644 12.2227
1 1.05751 6.06392 8.6515
1 16.0069 6.27812 19.2255
1 26.1652 21.2425 2.8374
1 41.3425 34.7951 22.6566
1 43.39 24.6684 37.3509
1 49.0424 18.7091 5.05087
1 22.722 16.4193 4.57218
1 30.2398 32.676 19.4352
1 11.4756 19.1703 2.82338
1 39.6576 35.8425 25.9577
1 34.3101 9.88348 42.6969
1 44.3798 40.8199 0.37666
1 9.01581 26.2737 45.0004
1 35.1502 2.27627 11.093
1 48.3605 12.7335 39.4091
1 27.9813 34.4953 25.407
1 7.75083 5.34742 38.2614
1 26.2415 2.96183 44.4195
1 3.34502 23.1601 30.8982
1 37.9013 30.1677 17.3116
1 21.9648 19.058 5.15009
1 40.3566 26.8028 15.8322
1 9.20048 25.361 32.1489
1 0.291807 21.6714 10.6254
1 37.9534 13.4125 4.62421
1 5.52914 17.5291 41.9539
1 5.82971 7.99432 21.2604
1 17.8358 44.6167 44.483
1 13.9292 44.788 40.2953
1 14.3034 0.262072 7.01696
1 12.6246 4.81871 19.7936
1 48.0415 43.5067 37.0211
1 22.2641 16.1927 45.7249
1 34.0132 48.2793 4.82863
1 14.1493 0.367191 45.5326
1 11.6294 13.3286 7.70021
1 33.9924 11.373 44.9765
1 18.0078 8.04697 11.3366
1 0.92203 4.20236 25.7101
1 44.7914 14.4191 42.3435
1 15.1796 48.6351 22.7788
1 47.0466 2.26161 24.1794
1 30.3866 26.1944 8.568
1 43.912 20.5573 30.0218
1 26.5849 23.869 14.3623
1 16.2609 10.6804 36.363
1 41.8307 33.771 48.5864
1 21.2465 41.1495 11.5906
1 0.553022 44.049 5.37161
1 4.89304 21.022 41.9004
1 43.5737 42.2782 3.87461
1 20.2717 28.4629 17.0787
1 4.0748 40.9575 15.9099
1 18.7204 47.9365 10.9131
1 11.3417 37.7429 12.9426
1 7.4842 22.2673 5.85026
1 9.20368 20.9076 12.2464
1 25.4697 17.2412 29.3724
1 23.9273 46.4823 29.3795
1 19.0546 17.5059 41.404
1 17.1805 43.5162 5.6516
1 10.2989 2.71381 20.7667
1 42.1235 15.6531 4.39281
1 1.44507 36.9003 31.6484
1 28.3189 14.4325 39.2812
1 24.8193 26.2194 14.2365
1 7.38715 13.8796 45.3474
1 48.6914 37.7789 49.2975
1 29.3552 19.8144 33.4805
1 3.43596 1.60682 40.1099
1 0.80041 10.0202 47.0403
1 16.5693 14.4505 47.2145
1 6.48341 16.6377 45.7826
1 46.4026 4.36734 37.6194
1 47.7285 41.2639 7.27146
1 16.0007 25.207 48.1184
1 28.0892 43.6785 30.9099
1 2.98225 29.7232 17.8021
1 20.3339 44.4691 31.9293
1 19.5023 45.5406 40.4601
1 29.6056 8.86611 6.62012
1 20.5398 42.822 16.9025
1 48.6486 13.9754 9.92883
1 13.2044 27.8382 45.1627
1 38.8828 3.02598 45.1349
1 32.2059 26.7254 4.24607
1 31.0324 10.9243 4.8706
1 36.9707 8.13966 36.9185
1 37.9569 1.06801 1.22732
1 7.57302 20.1587 42.0582
1 21.6227 20.3546 9.19159
1 44.9474 32.631 2.37076
1 47.8406 3.65744 43.6313
1 46.6758 1.46875 44.4433
1 7.35218 15.409 12.3579
1 35.7852 30.1361 42.289
1 21.2429 40.2261 23.7209
1 43.0569 35.4247 38.5451
1 24.4219 31.6688 35.771
1 24.2478 24.5884 20.3134
1 25.7073 41.2107 10.6646
1 18.6626 13.2479 17.4557
1 28.1609 8.63711 21.1428
1 0.501021 6.40182 1.06092
1 0.68046 19.7833 13.1723
1 44.1336 6.05557 12.8357
1 9.62404 27.7106 49.4246
1 31.4751 29.0021 40.5146
1 37.6294 19.4819 37.4652
1 27.4899 17.8046 8.1344
1 4.18694 21.2771 39.0335
1 37.4265 17.1185 5.32111
1 40.6107 14.0792 43.3506
1 17.2285 6.59542 43.7897
1 48.3837 3.15613 29.8776
1 12.3933 21.6275 14.8716
1 18.2247 34.2224 35.3598
1 36.51 21.6426 40.1713
1 45.1233 30.2486 40.4298
1 47.3095 10.1047 29.2472
1 15.1586 14.1189 8.4173
1 1.42647 38.8394 28.4174
1 29.4631 10.5553 31.676
1 2.75633 14.6804 34.377
1 43.162 35.9972 44.2456
1 48.7925 11.9068 27.8148
1 34.8482 17.5826 8.75898
1 49.167 46.2474 37.5172
1 29.2544 27.1133 45.0304
1 47.0771 26.9006 6.17036
1 47.3039 15.2932 24.888
1 14.9831 8.36729 4.61624
1 47.9752 39.1277 19.5686
1 43.7893 0.247074 10.9334
1 21.6032 40.0097 45.3699
1 4.82857 20.3241 45.5755
1 24.441 30.1638 30.6027
1 5.04887 14.9635 2.53239
1 15.9671 22.4457 32.5781
1 43.8442 9.57271 36.2242
1 14.8782 23.8164 12.671
1 7.08169 11.5143 35.1989
1 21.9753 18.3589 44.2098
1 47.4385 48.4335 41.475
1 13.174 43.7174 35.612
1 26.5431 28.3978 20.9136
1 3.09425 11.7056 38.4656
1 34.664 2.34776 23.7735
1 19.697 42.4889 39.0053
1 31.7098 21.7214 9.54786
1 15.0898 7.22826 45.8628
1 23.342 45.1666 41.3397
1 27.8528 4.70177 21.151
1 14.6978 11.8173 48.2928
1 7.69506 28.0855 21.8646
1 5.04951 23.4739 21.852
1 20.2276 39.5244 0.184571
1 17.5636 26.8103 23.3112
1 14.686 9.31995 34.2192
1 22.4398 36.0305 27.031
1 5.91897 32.8068 34.8829
1 29.1388 16.693 30.2292
1 19.5412 46.7073 36.9071
1 20.4014 13.048 15.1104
1 29.2258 12.8345 5.97635
1 45.5116 3.72189 13.724
1 4.9143 37.4297 44.311
1 37.1341 29.2588 30.8531
1 9.09833 0.587047 0.534726
1 16.8097 49.0303 15.1234
1 38.1472 45.5982 24.6438
1 27.1326 28.1353 10.1738
1 35.6422 40.6819 41.495
1 43.4975 47.1774 40.5793
1 33.6123 28.7525 4.88765
1 48.9069 29.4181 28.6743
1 0.43107 10.5508 36.408
1 16.2654 17.4595 0.685583
1 23.3456 3.67405 1.61516
1 12.0927 0.398936 38.1419
1 4.05453 28.5783 9.41076
1 23.5609 33.9922 4.43379
1 45.9688 10.358 43.6579
1 19.2143 30.9562 32.6504
1 4.91888 35.4044 31.7525
1 5.05153 13.2956 24.6625
1 9.97192 37.1698 31.492
1 21.759 40.3846 26.3505
1 19.2959 31.1392 13.9006
1 2.39813 39.9437 39.5289
1 31.8024 12.7397 44.8769
1 10.9257 29.2147 2.68175
1 11.3106 13.2094 0.469147
1 0.763868 0.191623 8.5465
1 46.4415 6.83472 41.4467
1 38.9428 43.4803 17.188
1 7.43469 7.82779 6.66657
1 31.1596 44.1694 14.7761
1 10.4013 32.7515 9.37302
1 4.0614 1.95134 15.3887
1 4.64917 34.0307 2.52884
1 6.57026 32.4528 19.9642
1 0.3563 14.1764 35.7592
1 16.5042 48.241 7.94166
1 15.9019 9.4894 1.27639
1 17.8434 14.2062 4.98539
1 28.8893 49.7159 32.6122
1 38.0906 41.6819 42.2605
1 45.8236 33.9271 42.0099
1 38.1081 14.559 15.5124
1 11.6001 41.6976 38.5108
1 7.1624 6.53338 45.7779
1 0.412227 7.94702 45.2614
1 47.8476 2.72622 2.81275
1 14.1519 34.1415 6.30013
1 16.825 23.8915 0.774715
1 33.1005 33.709 39.9864
1 32.1257 8.47026 43.4333
1 3.6803 47.3829 39.3688
1 4.74992 0.621417 9.83443
1 46.5909 13.6923 26.8163
1 1.76944 43.877 41.673
1 9.76114 26.9506 38.5286
1 16.5474 34.5495 29.7864
1 47.8405 5.04966 13.8693
1 20.9734 16.3622 23.6323
1 3.78629 33.9202 15.8442
1 14.2602 27.6594 28.0354
1 42.5474 32.3199 29.2428
1 37.5992 27.1582 17.7986
1 23.0392 22.4704 37.6076
1 13.4711 44.076 9.71903
1 37.6322 33.7433 30.9427
1 3.45547 47.0656 43.0896
1 38.1067 48.2678 15.9038
1 18.6615 20.3796 26.619
1 15.1705 45.1782 33.9838
1 32.1384 26.0459 22.7554
1 44.2435 24.687 10.5698
1 20.6547 9.0799 37.6253
1 39.0598 21.609 1.82166
1 2.85677 8.57087 4.71607
1 36.5318 30.2217 19.8681
1 12.114 35.2175 4.41379
1 24.6444 43.8385 27.0432
1 42.8738 41.9654 22.268
1 19.7267 24.0424 28.5622
1 2.14059 8.351 34.9931
1 20.5812 49.0619 28.0234
1 46.2944 30.5825 3.55687
1 35.4844 15.7973 42.3464
1 11.4246 15.4358 24.1081
1 33.3005 8.08443 39.6655
1 42.4288 36.2351 18.468
1 44.9911 46.7481 44.4627
1 46.5681 45.8879 18.7255
1 26.1088 42.7977 36.1511
1 1.54042 31.5632 7.60215
1 28.1035 9.1536 3.53073
1 40.5512 11.8591 33.6296
1 32.2548 44.9318 1.954
1 0.95532 21.1015 25.2389
1 29.7501 44.787 37.3992
1 35.2551 19.1031 47.9027
1 17.1832 2.23897 9.35022
1 10.3249 29.11 15.2592
1 32.5356 15.7229 1.82777
1 44.2827 26.7215 17.9838
1 47.6543 35.3068 33.4155
1 30.0808 46.5642 11.1249
1 44.9333 40.4214 42.3986
1 45.7176 35.0128 18.294
1 2.54112 36.6826 12.096
1 35.2924 45.369 45.561
1 11.088 39.2219 37.287
1 34.2499 40.5052 43.7215
1 10.503 5.90667 24.5816
1 36.0388 2.70181 45.9376
1 10.0746 32.1298 48.4819
1 17.0296 32.8443 1.85647
1 44.1638 22.1931 13.3538
1 42.6622 8.27147 32.1907
1 1.68583 11.8689 45.1822
1 41.3821 32.2734 12.5709
1 42.0318 42.1919 10.3053
1 19.9797 10.1305 33.7585
1 5.30637 15.1428 7.19704
1 29.0649 31.7595 25.909
1 33.3822 22.0295 0.640643
1 14.0539 14.2264 39.024
1 14.1127 2.91019 20.6897
1 47.0627 29.0357 31.6314
1 10.3215 39.46 34.2402
1 3.64656 29.4004 23.2074
1 13.5973 26.5956 47.6077
1 37.9571 24.2074 9.76421
1 12.1912 0.94708 15.4916
1 4.84398 44.17 6.68505
1 42.9005 10.6677 24.6282
1 26.9058 23.6023 35.5739
1 40.8197 1.77487 42.1767
1 28.1364 3.57019 28.4114
1 27.86 31.6407 42.0104
1 26.0364 10.0056 17.1236
1 7.96059 34.4009 9.67123
1 7.04042 9.70295 26.7084
1 36.4834 43.8009 10.8389
1 9.85813 10.7428 12.0861
1 2.88882 40.9821 20.2532
1 12.2221 3.26341 24.4773
1 41.77 25.1893 11.3697
1 16.1861 28.965 12.5311
1 7.10704 19.004 18.4721
1 12.4084 46.0763 36.8048
1 40.0076 21.8642 39.8973
1 27.0651 2.16645 12.5222
1 48.4335 37.8357 32.4178
1 12.786 38.3529 20.4075
1 35.9056 40.0542 1.72752
1 6.73365 20.2343 1.68818
1 46.4437 21.8702 38.5441
1 15.0304 31.7128 33.7223
1 14.2802 48.6124 34.757
1 41.0677 43.5051 5.87455
1 48.0985 24.7819 17.6049
1 1.25919 17.9387 42.7061
1 30.7785 26.1588 29.807
1 29.6381 6.02975 6.97402
1 24.4822 34.4689 2.05224
1 18.9337 37.1195 23.5355
1 20.5121 27.3813 10.5009
1 39.4624 28.3972 21.9091
1 5.55894 11.258 32.7285
1 23.8234 36.2659 24.068
1 3.31099 28.4762 40.4192
1 19.0419 41.6969 14.8992
1 40.7136 27.7927 36.6024
1 39.6487 37.6841 29.9244
1 11.9028 30.8327 12.7886
1 38.7621 28.3639 43.2131
1 30.9157 49.4573 47.8817
1 1.52819 7.41375 39.8666
1 15.2868 41.4157 5.31621
1 39.5493 7.19985 13.2288
1 22.8111 2.31658 6.55347
1 46.5923 7.29954 2.62103
1 24.0465 43.9964 49.0633
1 29.7876 48.8681 35.2784
1 35.4284 17.131 23.9456
1 5.83959 8.77833 48.7974
1 48.6806 5.9316 33.1284
1 15.5491 8.4497 8.88853
1 48.7955 32.9003 39.3873
1 3.07971 31.3425 36.4643
1 43.8135 20.6163 41.8835
1 46.3018 43.0905 21.325
1 12.0262 38.0495 4.53468
1 44.4575 41.7619 24.6944
1 17.8121 21.2197 39.1007
1 18.8124 44.0354 9.4257
1 2.45154 27.3688 24.2406
1 36.1399 47.6291 25.9662
1 32.4578 14.9836 36.4107
1 34.1738 39.1989 34.1307
1 16.501 5.92935 7.65309
1 18.8398 28.8928 5.62464
1 47.7447 32.7918 48.4928
1 5.16331 4.6464 10.0313
1 38.1629 0.580201 17.5975
1 32.3338 2.72051 25.0451
1 20.4199 1.0872 13.6441
1 13.9051 40.7328 12.3843
1 39.5245 39.5481 33.4611
1 6.51247 24.2682 7.53931
1 5.4224 9.57117 5.68212
1 25.6676 28.32 27.5674
1 40.8647 8.24429 20.4811
1 9.10228 10.2302 1.81005
1 18.4444 15.6344 22.6787
1 43.9006 4.70708 16.6325
1 15.2052 22.5544 38.4861
1 14.4413 33.2726 17.7088
1 7.47548 39.4958 2.7445
1 45.2457 26.9327 42.9217
1 37.598 27.2595 7.84444
1 0.242405 34.9453 12.3527
1 20.0956 18.8738 12.7374
1 48.8958 5.97083 30.355
1 24.0573 31.4465 16.1556
1 33.8623 43.6627 15.9349
1 27.8729 4.27845 10.8111
1 8.8118 44.0018 8.27522
1 43.7319 9.72929 10.6479
1 0.708343 6.63483 15.6793
1 40.0302 7.54801 27.8031
1 34.3751 35.0168 35.8907
1 17.375 33.1946 10.5846
1 8.35601 38.1425 21.9667
1 0.599132 43.2714 20.6983
1 43.8347 36.3346 28.9039
1 20.2116 35.1026 48.841
1 40.0649 36.6789 20.1766
1 27.3831 11.4309 47.3236
1 41.9295 37.3504 23.8017
1 11.3132 7.00784 2.33815
1 39.4119 18.2247 43.3685
1 10.7877 46.2181 11.7366
1 34.1982 26.2596 11.1638
1 24.0222 19.3454 8.5452
1 20.5763 3.59196 27.6641
1 44.6037 21.6955 21.6346
1 26.5447 3.24718 22.8561
1 31.7523 27.435 46.2327
1 42.015 28.0966 18.5842
1 43.779 21.647 25.8527
1 36.2804 25.0858 3.57188
1 18.8347 44.9905 17.6255
1 5.35416 24.1455 3.00744
1 17.8301 33.5014 21.41
1 20.5397 24.8348 32.6355
1 30.9626 30.3228 10.6285
1 3.23308 48.4964 16.4956
1 32.11 3.83288 47.8663
1 39.9328 1.53741 30.3506
1 40.2966 22.5384 16.3024
1 5.94577 28.7304 0.197714
1 11.1215 8.45432 13.7489
1 16.6603 44.8515 1.34491
1 29.6326 46.108 18.1474
1 39.4436 32.4898 48.6831
1 6.29502 1.39153 21.9346
1 46.4498 29.1883 38.2049
1 15.1407 28.4605 43.22
1 27.1298 23.4609 31.3872
1 1.72605 45.487 32.1717
1 19.0486 40.0536 44.4145
1 48.4173 22.2732 36.7713
1 37.4811 36.9285 5.09247
1 7.86553 26.7292 17.3809
1 17.4617 41.3324 9.09532
1 7.76994 35.0861 47.2076
1 8.75692 25.8586 23.0435
1 0.317371 28.446 39.9687
1 11.1014 7.95407 9.92229
1 44.2281 42.1768 19.7005
1 17.4276 3.67299 13.6096
1 2.56283 9.63886 22.2175
1 15.2958 31.8218 15.528
1 40.4323 26.0137 9.20499
1 11.0955 23.7566 6.66027
1 28.9951 36.9245 19.7704
1 6.50471 22.4439 10.422
1 19.7462 22.3088 4.16426
1 7.86358 38.363 33.5682
1 38.6569 32.7362 12.02
1 42.6609 24.6572 40.176
1 46.4936 33.9366 6.83798
1 27.2445 1.70067 0.235187
1 29.6655 46.9804 29.2325
1 8.67777 7.43421 12.4247
1 24.1598 36.1215 41.5062
1 17.9295 48.1342 19.8731
1 21.3768 47.8056 16.8254
1 16.5536 5.97552 36.9462
1 26.9057 8.92162 48.9148
1 2.18357 36.5886 6.34211
1 15.0674 30.3711 27.6954
1 49.2679 2.65986 11.4487
1 20.1761 15.5993 31.4273
1 24.3412 19.9401 34.7644
1 33.8925 33.8368 8.06733
1 49.6825 29.672 6.83061
1 36.0986 23.9193 17.1552
1 23.4069 45.8787 1.37071
1 41.8404 29.5219 49.6679
1 49.1763 3.83203 46.0344
1 47.7168 41.4437 13.5503
1 36.3006 29.0673 35.3521
1 47.0867 38.9342 42.1022
1 35.401 30.2582 28.3383
1 6.24316 43.1173 24.3632
1 46.5025 12.0104 12.6772
1 40.6742 42.31 38.8839
1 25.4089 20.8962 10.2474
1 43.2617 2.85082 41.9201
1 1.05354 23.841 42.9514
1 8.5035 22.7672 18.6042
1 48.3623 23.5084 19.6279
1 3.80467 8.81034 10.2787
1 38.6846 2.0313 24.7655
1 31.3514 42.3812 19.8336
1 2.34875 46.0465 10.8026
1 46.7389 23.116 23.0163
1 3.17751 27.5591 12.3613
1 10.5854 9.69839 33.0506
1 22.4517 33.2529 34.2173
1 34.8634 20.0032 12.8774
1 28.3156 46.423 5.24767
1 32.1587 41.3984 25.5058
1 18.4226 15.4084 29.3276
1 35.5602 26.0242 19.6175
1 32.6321 18.6485 4.79548
1 46.7134 34.0969 31.3524
1 18.3155 40.9806 20.2281
1 4.632 19.6214 26.6353
1 3.34572 0.896722 22.7098
1 2.61119 14.6065 13.4239
1 28.9329 38.4591 44.1725
1 5.15866 17.4406 30.3315
1 37.1876 22.7411 29.1869
1 31.2983 46.9075 46.3558
1 34.493 29.4504 24.2699
1 9.14289 46.6593 9.86872
1 47.0175 43.7066 41.4889
1 20.6732 39.9459 38.2552
1 36.2302 9.51746 26.3538
1 46.0243 38.7764 46.5825
1 2.58117 6.13628 26.969
1 24.9918 22.7019 30.1809
1 8.92891 0.716364 11.7231
1 34.1768 24.6043 23.4308
1 37.4606 36.0976 29.3476
1 44.354 40.6111 29.2044
1 46.4401 35.8615 23.2778
1 19.909 20.9723 29.021
1 39.7155 33.1119 28.9313
1 46.3297 29.6799 42.7379
1 46.7057 30.5206 24.7739
1 47.7848 43.7517 17.0699
1 28.177 3.55212 25.3299
1 35.2226 35.2992 39.8433
1 38.6228 6.24859 8.61129
1 5.25707 23.3197 43.6574
1 34.6722 48.5989 35.9963
1 45.7527 31.5581 49.547
1 23.0269 46.2186 17.8155
1 16.3735 4.01575 21.3088
1 32.1211 49.661 44.8435
1 6.00912 17.7253 11.0681
1 8.71544 28.2217 43.1358
1 43.0898 13.0142 43.8772
1 44.3196 34.0596 22.2994
1 48.0198 19.7171 28.812
1 17.4567 47.3283 33.7962
1 11.9008 19.5895 21.9568
1 27.4528 6.88297 23.3128
1 8.91178 26.4509 35.7522
1 15.022 21.0944 15.0516
1 6.05913 30.0411 24.6822
1 34.6066 38.8698 37.7044
1 43.5999 11.1803 48.3004
1 18.1282 4.6832 1.00666
1 14.009 10.4796 18.151
1 3.89854 47.785 35.0364
1 34.3326 33.6627 0.613889
1 0.790422 23.7258 1.46681
1 16.4973 15.3291 17.6846
1 16.6517 27.0902 29.6283
1 9.04266 37.0691 15.3999
1 0.602396 11.2899 24.9216
1 5.22624 27.3671 20.6421
1 8.72161 36.9071 41.186
1 18.4119 42.6394 27.713
1 4.21471 16.1125 4.80896
1 2.20434 19.5206 27.8454
1 47.0763 19.8565 7.41978
1 32.3594 35.8615 2.14018
1 8.90598 2.35837 2.44684
1 18.6316 17.8472 36.8941
1 1.23038 30.5208 14.0309
1 35.5649 5.7966 26.8554
1 43.6326 22.8004 48.9403
1 8.48175 40.3682 20.0715
1 18.5628 1.58873 27.99
1 14.1833 28.3259 31.7881
1 6.60735 43.8674 20.172
1 11.2023 26.444 11.9151
1 47.7528 35.1562 4.39134
1 18.2548 40.4248 23.2438
1 8.33349 37.927 37.048
1 31.5548 38.1867 18.7562
1 10.7215 5.09435 10.0753
1 7.42493 2.70032 17.342
1 34.4327 14.4846 20.8664
1 44.957 48.3229 32.4211
1 38.3816 19.4301 29.9353
1 44.5225 41.4515 7.74793
1 28.2528 20.0831 49.6818
1 15.8945 35.9895 27.2827
1 47.0341 8.23427 33.4186
1 46.8836 2.9949 48.5867
1 43.6568 49.4914 28.4432
1 47.1818 4.28591 18.323
1 21.6273 37.6319 23.3074
1 33.1203 7.73256 36.7619
1 9.49979 46.4454 20.6482
1 12.6536 30.0381 0.702091
1 3.35592 29.0109 20.3613
1 7.86084 46.5979 14.9619
1 16.5298 44.8855 40.9319
1 38.3245 34.8979 18.8709
1 29.5562 0.036466 18.1412
1 0.0711186 37.7213 21.4135
1 31.8043 46.41 19.4214
1 6.36045 35.7209 14.4903
1 40.2694 41.9848 1.54704
1 29.6153 3.54409 39.8695
1 23.9376 4.12583 19.9123
1 22.2237 35.9494 5.78775
1 0.840145 35.7392 42.2847
1 48.0082 2.10973 34.347
1 34.0842 23.2682 31.0891
1 11.5553 40.8931 28.6328
1 36.9525 29.9401 39.3762
1 18.5858 13.3291 45.7539
1 6.38274 24.191 32.965
1 4.27583 30.7901 1.09037
1 24.1008 32.2986 38.3097
1 46.557 14.7475 39.6336
1 1.09863 9.94529 32.6155
1 25.8405 40.5211 41.8849
1 39.8301 30.7605 33.4234
1 29.8973 27.5747 3.21409
1 28.565 17.264 39.2006
1 31.4444 16.6647 34.381
1 21.7974 43.6535 37.3126
1 3.50863 26.5961 0.36904
1 35.043 32.3115 20.2644
1 45.0986 20.9938 35.2939
1 15.9687 1.34712 37.7133
1 48.4792 4.42888 9.68251
1 17.3085 37.9231 31.7486
1 48.7929 37.9113 13.1465
1 24.1843 41.4365 0.213989
1 18.0922 21.3708 7.40375
1 7.48292 34.117 23.4314
1 1.21231 16.611 49.4236
1 24.3752 28.1876 7.92154
1 18.1246 31.6314 49.4778
1 36.5919 8.39377 43.2528
1 16.6068 39.3966 48.9483
1 7.35401 28.4313 7.38598
1 41.4279 -0.241588 47.7736
1 18.5547 30.6683 30.281
1 35.6245 12.4959 7.59698
1 9.5776 28.0232 26.054
1 8.73866 46.8164 44.7993
1 7.93011 1.87396 23.934
1 7.35368 48.1811 31.9254
1 43.3936 3.72474 1.18033
1 1.4323 25.6697 36.7459
1 4.93208 17.3253 24.6233
1 7.26847 11.5644 30.7825