4096
 Atoms. Timestep: 4560
1 43.8593 22.7595 18.9717
1 7.91912 0.343627 23.7384
1 9.54204 17.0307 12.3819
1 45.6035 29.3911 31.7096
1 0.328463 9.62396 10.9319
1 1.68868 4.98204 14.1079
1 10.6485 22.4675 25.1098
1 31.1138 2.96078 17.6866
1 40.6183 36.3897 2.15197
1 30.2849 16.5852 14.6074
1 49.1146 46.0912 25.1738
1 31.6058 16.0455 4.50847
1 39.2396 36.4176 33.7237
1 41.575 29.011 35.0167
1 24.37 22.2166 8.24735
1 7.54214 22.628 17.1671
1 36.6533 16.5102 6.8791
1 40 19.2635 9.83225
1 32.7315 31.3914 49.3961
1 20.692 49.4763 28.9163
1 -0.000275643 32.6453 25.9329
1 35.3848 49.4778 27.1608
1 21.9997 47.1526 48.4739
1 2.86393 48.4095 22.2285
1 31.6969 31.7633 22.4863
1 48.5013 13.5086 16.4111
1 12.5837 24.1226 14.7762
1 46.3977 16.1695 20.0545
1 41.1216 4.78679 26.0676
1 43.6641 49.3893 36.2381
1 11.5143 6.27425 43.1265
1 24.8708 16.1494 19.5924
1 38.4509 42.9488 4.55198
1 16.9841 14.1464 24.366
1 9.72131 18.1251 39.7949
1 20.9229 29.4286 47.2067
1 20.981 26.4961 0.420201
1 19.1643 0.166969 34.8227
1 13.0743 37.7542 5.95352
1 27.4194 16.5508 18.0339
1 14.1798 12.4167 28.7519
1 44.7569 32.7588 44.749
1 39.0347 6.6325 25.984
1 48.7364 43.4902 7.83829
1 5.72098 17.1881 17.9614
1 28.5513 15.326 12.273
1 29.4 18.5872 47.473
1 6.55711 44.5963 17.5311
1 5.85435 43.2954 37.6923
1 5.94176 8.05957 32.47
1 31.529 27.233 1.43558
1 13.2497 43.5816 45.9629
1 40.9685 12.8746 46.0532
1 6.36022 19.5092 33.5416
1 15.5618 31.697 27.7225
1 16.2618 39.7448 44.2154
1 31.0027 19.5705 9.89496
1 6.61002 9.2317 24.666
1 12.4366 35.3086 6.35135
1 5.72429 14.9508 3.41144
1 4.72742 27.33 22.1757
1 28.9686 36.4793 35.2555
1 15.828 43.9316 45.8193
1 4.30756 35.5549 17.0793
1 18.3054 6.03855 9.45655
1 1.90122 34.3116 8.21167
1 2.56791 25.5856 48.6371
1 49.764 24.8745 39.2671
1 12.1845 42.1528 0.687237
1 29.444 5.48398 17.6784
1 22.3153 37.6197 29.3467
1 23.0978 38.2988 8.26768
1 39.8775 48.1339 3.78158
1 25.7289 10.6888 5.50118
1 26.5544 43.4798 29.2543
1 26.488 13.5909 12.3613
1 21.9401 26.5457 27.2642
1 25.0831 1.26225 30.4336
1 28.9524 31.7375 23.584
1 36.354 28.3002 19.6594
1 15.9068 31.9924 23.5165
1 5.79082 10.0108 39.3014
1 11.1512 19.0405 28.7982
1 2.24452 6.74799 3.52701
1 12.7093 31.0546 5.12934
1 20.611 18.7867 12.1175
1 46.2247 49.5761 37.5289
1 41.46 28.069 46.685
1 38.314 27.093 21.3625
1 15.6577 27.6314 11.0844
1 44.457 15.5281 43.2916
1 9.12677 39.3314 19.005
1 12.4843 28.9278 23.876
1 6.26138 41.5089 10.6646
1 33.0488 46.6793 42.5029
1 29.7644 11.3642 37.8652
1 40.3404 17.7465 17.5147
1 11.2719 5.61792 13.1712
1 37.0397 14.1813 45.6004
1 30.963 43.0604 34.8157
1 17.7791 8.35273 11.1607
1 29.2009 2.71624 32.4704
1 16.3373 23.3565 39.0602
1 17.6327 47.636 46.5481
1 39.874 38.1715 37.6824
1 20.4503 26.103 9.51751
1 11.5031 48.3142 17.474
1 3.19537 47.3196 15.6226
1 32.3135 42.9989 16.4348
1 14.1944 23.2383 17.2751
1 45.9515 21.6185 14.4776
1 33.7682 37.085 7.9508
1 31.2422 7.17628 47.9942
1 42.269 48.1114 15.663
1 20.6565 17.8158 36.1176
1 37.0755 7.51917 2.10094
1 39.1001 1.39143 13.7346
1 24.2497 13.8693 17.7753
1 13.1069 21.6669 20.2738
1 3.60747 9.98377 41.0147
1 26.6739 47.4183 27.257
1 11.1064 40.4451 23.4015
1 43.4151 21.304 44.9537
1 27.3879 3.21503 18.076
1 2.13131 35.4401 36.3749
1 48.6871 17.0802 18.8865
1 41.9463 7.55031 33.4752
1 15.8679 17.2163 38.4854
1 15.2337 5.37605 1.48294
1 31.9221 48.0349 35.3644
1 3.34341 44.8772 46.0988
1 47.8941 4.90124 44.5625
1 6.60152 33.9995 42.341
1 47.0819 16.0711 1.56973
1 17.5759 36.0831 40.3999
1 5.76377 24.8406 1.49505
1 6.73606 37.767 46.6948
1 27.6421 22.0295 5.36881
1 48.0008 15.7147 22.9548
1 21.2421 37.7531 42.6088
1 17.1796 28.938 49.0235
1 47.3272 7.64807 17.2967
1 45.1607 5.88896 33.5843
1 43.8524 14.6873 5.94246
1 44.8321 31.3121 7.46576
1 15.8938 6.01038 33.2946
1 15.208 0.60664 13.0149
1 19.7865 48.5825 36.9375
1 19.2842 35.1298 35.9441
1 18.5835 14.3356 0.789639
1 19.1342 49.1981 3.09491
1 49.8287 28.2145 15.7089
1 15.1903 35.6951 13.0835
1 29.1522 24.0525 3.83385
1 38.4217 17.9377 27.1398
1 10.0527 1.73675 47.2166
1 15.0273 8.87642 45.9636
1 16.4703 46.6603 7.21793
1 21.2127 44.9916 33.8012
1 16.8051 30.932 37.5661
1 4.45964 13.5218 5.52778
1 8.23193 27.0247 13.6307
1 39.9689 31.6562 14.8331
1 23.0174 47.0535 32.878
1 14.7324 8.8588 10.2492
1 41.1926 17.3842 33.6836
1 41.0177 6.67558 13.3196
1 2.01412 7.7209 24.497
1 34.6846 9.13785 13.1276
1 7.00189 0.280528 21.3063
1 29.8429 3.97827 36.5665
1 30.3395 9.32737 3.49717
1 21.8219 8.15973 16.6494
1 18.3678 10.9325 20.1483
1 3.00393 28.8918 44.8223
1 2.68334 47.4056 24.6051
1 49.4771 41.9774 18.4372
1 4.04777 1.76779 40.1654
1 35.3588 26.5634 17.9407
1 14.2455 17.2287 12.6107
1 45.8424 47.9546 21.4134
1 29.8838 49.6413 21.6261
1 17.8498 0.953835 45.7049
1 32.0652 18.0768 30.3591
1 4.87681 5.08368 22.7734
1 41.872 32.9049 29.1471
1 3.46624 47.9593 3.38761
1 11.9684 31.1618 25.0605
1 28.0351 13.2878 47.3102
1 26.2981 3.96779 1.44219
1 12.8802 17.8713 20.5296
1 38.7759 0.559759 36.5687
1 47.8476 34.4998 42.5366
1 5.20956 32.8875 38.7289
1 17.6906 44.2415 21.2168
1 9.28065 44.4704 25.386
1 6.34456 15.0554 19.4953
1 25.8971 7.93228 16.9551
1 3.04264 21.2591 48.3546
1 49.2114 26.0636 43.0878
1 46.2895 33.2238 49.5085
1 29.4395 4.14091 43.6173
1 47.5209 45.8859 36.8513
1 27.1025 26.6097 8.0112
1 19.5596 43.2747 15.0705
1 34.3674 29.4652 20.565
1 40.2307 34.0758 15.9602
1 33.639 44.0746 43.8554
1 5.66812 35.3783 46.4375
1 13.5069 29.4488 46.4515
1 10.3316 35.736 32.7167
1 31.2969 48.9381 44.2562
1 48.0236 9.99167 21.1096
1 46.9611 30.2366 29.2477
1 21.8724 47.8039 42.1678
1 12.851 47.9157 24.6938
1 46.6318 12.9759 12.5724
1 36.686 2.27804 27.0559
1 32.2792 10.1642 12.2982
1 18.1096 32.8917 43.7624
1 48.6607 17.5002 24.8482
1 18.9202 22.6304 14.9291
1 5.17521 17.7312 22.8572
1 2.00465 10.0462 30.6512
1 37.0101 10.2094 25.2834
1 23.9782 11.2032 42.0326
1 47.4962 18.7707 2.27576
1 34.0606 33.4741 17.4373
1 30.8751 26.3474 34.2767
1 13.8854 12.0927 9.26537
1 0.410826 46.8119 48.0497
1 41.3418 2.6207 3.15073
1 47.3921 44.6008 23.8652
1 6.15431 32.5714 33.3765
1 18.073 36.1596 21.2158
1 44.5562 6.6454 36.0781
1 1.53586 23.2821 6.41704
1 15.4464 43.8311 17.4375
1 38.617 35.8789 37.4287
1 13.9427 22.9612 9.65921
1 29.5179 7.71872 35.7961
1 13.6131 48.7483 28.1205
1 45.0993 42.7787 33.4015
1 4.9417 44.4508 5.05303
1 41.7668 13.9516 32.1528
1 33.6422 15.0655 21.7016
1 36.0448 16.4883 46.7412
1 41.2555 19.9062 34.9638
1 23.4879 42.7843 17.1468
1 41.0164 7.46836 7.65992
1 3.16275 45.3866 6.6457
1 32.2589 8.23062 1.69566
1 14.6893 27.5435 38.0213
1 34.3899 25.5001 44.0973
1 2.72698 49.4639 9.84607
1 35.5679 30.7313 33.5345
1 16.95 22.6403 5.83045
1 10.6871 1.25731 42.7126
1 10.8159 5.77837 34.4666
1 13.5486 19.939 12.5153
1 5.70051 0.603577 10.1796
1 11.0455 45.9885 29.8007
1 35.1353 32.1823 30.5308
1 49.1835 35.149 0.122731
1 36.7343 49.0509 8.2426
1 35.3768 34.4932 13.2428
1 41.5542 30.3226 4.24136
1 18.5507 40.1872 18.5519
1 44.7734 47.2138 0.842984
1 49.7429 25.4613 47.3734
1 30.6334 22.6307 42.4587
1 0.560131 18.8558 2.97113
1 7.8703 45.0111 4.4264
1 24.1748 4.30853 29.1271
1 5.05271 17.1399 32.6393
1 12.3643 10.6174 20.0904
1 42.527 12.9586 10.266
1 11.7931 17.2634 30.9625
1 32.1755 16.8157 20.4506
1 36.009 16.2317 22.232
1 4.77069 4.21221 44.8572
1 17.7156 1.41526 7.28269
1 40.1496 26.1281 19.1119
1 28.075 47.0026 0.732868
1 43.6623 48.0785 43.1916
1 21.37 2.55395 35.1426
1 10.2861 23.4955 30.9017
1 9.46979 1.78898 13.0744
1 16.0936 25.0181 36.9844
1 6.0932 29.8005 19.8933
1 45.0648 28.5073 25.6986
1 10.6249 9.30332 44.4339
1 19.5827 32.8048 10.0292
1 7.62429 9.85728 35.7788
1 25.2832 8.38036 36.3001
1 6.68151 31.4848 41.2141
1 48.5997 13.3531 49.348
1 30.8975 24.0003 35.0069
1 41.4984 23.9383 26.1079
1 33.375 48.3679 48.0212
1 33.7608 13.9561 41.5445
1 16.2297 42.58 37.1982
1 8.86055 0.496251 6.62775
1 6.12245 8.55442 21.6998
1 16.4278 20.1657 12.4517
1 14.228 13.4833 23.0503
1 25.8789 31.8766 13.0529
1 3.82063 30.8555 25.5242
1 43.7367 48.8103 13.5248
1 35.0209 23.0999 19.3315
1 25.0259 33.0128 26.3103
1 41.9793 35.3573 29.4342
1 44.0626 11.9671 37.6504
1 7.99137 14.9958 11.7589
1 8.81571 42.3222 7.98711
1 39.4347 34.49 0.796374
1 31.9489 0.0436337 40.0619
1 18.0636 3.15498 1.36305
1 32.3215 38.7349 36.7494
1 2.66378 47.7433 11.6152
1 32.2099 45.9479 26.9382
1 35.9298 11.3198 32.0353
1 0.0947041 11.4993 41.1713
1 14.33 21.1961 44.2758
1 26.1361 5.6854 42.433
1 21.6536 25.2734 46.0024
1 25.9344 7.61678 2.44383
1 23.8567 43.1947 28.0521
1 38.8119 43.957 30.0498
1 19.6708 34.6741 11.881
1 33.6015 22.0928 17.1579
1 30.7066 40.6371 8.69987
1 39.5451 13.6376 4.01982
1 36.1261 30.0923 27.5193
1 20.2827 13.7349 18.6549
1 43.0667 9.92853 20.5124
1 46.9285 23.6129 38.1467
1 24.8378 37.319 45.4624
1 5.80319 27.6242 7.12107
1 26.2684 16.3529 27.9495
1 45.568 8.21201 13.6715
1 46.9657 15.5265 48.3991
1 44.7232 8.10923 26.9658
1 13.0116 8.93513 49.2742
1 34.823 16.9433 10.273
1 39.6529 27.3616 38.4274
1 29.265 43.1882 20.1528
1 47.4054 9.08246 45.0172
1 42.6609 32.1571 26.5653
1 1.7142 11.388 5.21247
1 44.0471 6.68787 20.7778
1 36.6447 20.6183 47.6134
1 27.7609 5.15358 35.4772
1 17.3135 11.8316 15.7355
1 -0.00746236 28.055 23.7553
1 14.3346 15.3895 27.733
1 36.5454 12.6534 18.9183
1 4.18713 9.79683 33.5777
1 9.75704 7.47419 30.5909
1 28.8436 2.60099 24.3669
1 17.4311 31.3886 21.3989
1 17.2145 35.8565 6.1628
1 31.5979 48.0915 9.23666
1 27.6329 23.086 39.1254
1 43.4282 31.1958 11.2017
1 42.0839 3.93141 9.43467
1 43.0194 18.6365 11.3827
1 42.9622 7.54227 39.3622
1 6.56228 13.7839 30.697
1 3.13726 40.5363 35.3763
1 15.5782 6.47653 11.9964
1 48.1624 7.94705 10.312
1 4.41232 19.4325 2.43469
1 33.778 26.8111 9.75334
1 39.2857 0.412976 7.66014
1 48.2386 5.98663 22.006
1 2.83273 39.4439 2.67174
1 34.0627 34.2599 5.63008
1 31.0014 44.904 23.7276
1 37.8419 8.74007 49.4014
1 16.476 38.5595 34.8302
1 42.9616 6.42715 9.08305
1 29.5745 15.0263 21.0739
1 13.5616 29.2289 19.7047
1 26.063 49.3306 38.1634
1 11.096 16.4733 42.7528
1 3.25106 31.6 49.26
1 33.9172 28.8632 31.8839
1 46.5365 9.50543 39.6078
1 2.0291 9.92152 22.5936
1 28.596 35.885 12.7034
1 45.026 14.603 18.0856
1 23.6102 32.4654 3.72526
1 16.1061 21.9676 14.4925
1 28.5831 2.6722 29.0913
1 41.7732 47.872 47.0797
1 2.29958 3.51975 6.35857
1 2.15912 19.9668 45.1035
1 31.459 31.2678 3.4698
1 22.9942 39.7479 19.6288
1 31.9326 11.6292 34.6526
1 12.6613 14.4616 9.85308
1 42.7184 47.3929 38.2704
1 33.9479 23.6536 8.85637
1 7.04989 23.0936 11.2665
1 40.4021 16.0234 8.04252
1 24.8658 10.5623 15.2306
1 37.8987 49.4656 44.7082
1 28.1987 48.8901 17.5316
1 27.2856 8.0127 48.8458
1 22.9917 43.813 23.527
1 2.4884 40.9265 47.1347
1 29.1614 28.7942 20.3627
1 1.5644 44.6814 24.7137
1 22.3615 32.8962 41.9676
1 2.40487 31.0245 8.06904
1 6.76856 11.1511 18.1012
1 28.5408 28.8619 23.1573
1 16.6669 3.66519 28.5204
1 46.842 27.3656 28.0058
1 13.7125 45.3676 21.4475
1 2.57842 26.2565 33.4591
1 2.4487 48.6408 32.5366
1 36.7431 42.5022 0.28498
1 17.0368 38.9992 3.52939
1 27.8345 23.339 35.0708
1 8.07555 26.2573 24.1384
1 16.595 40.622 33.1752
1 24.4815 31.2518 46.2651
1 1.91132 12.7295 30.5583
1 21.6128 49.6189 33.3938
1 8.52729 1.94151 4.54974
1 46.6067 25.0312 42.1561
1 23.944 17.9409 34.3263
1 46.4895 2.36223 6.89107
1 43.9501 12.7805 44.7357
1 39.1105 43.5749 25.4957
1 25.044 1.76039 36.8656
1 39.2972 15.052 44.2434
1 22.5431 2.16097 2.42466
1 19.5957 31.0088 15.2661
1 16.7094 48.3599 18.8656
1 29.6474 48.0194 19.7004
1 43.4697 45.5397 19.0139
1 49.5111 9.03937 15.9476
1 12.3868 9.85277 3.8439
1 2.88098 8.96203 35.8211
1 43.8696 21.7181 27.6787
1 5.36883 0.139674 17.3184
1 24.4791 40.4844 10.2427
1 2.22111 2.14426 10.9394
1 16.7258 11.1204 43.1102
1 42.8101 7.85595 11.5512
1 13.1872 4.32654 45.5918
1 49.3398 14.135 20.7641
1 15.8851 22.4345 26.4787
1 11.2588 37.5983 41.0281
1 42.5912 31.1371 13.6891
1 49.1673 29.5208 21.0906
1 2.1468 15.1728 20.4754
1 23.2552 14.8448 43.7503
1 3.985 35.1607 41.9624
1 37.8825 25.0761 9.03387
1 0.270348 17.4068 13.6085
1 31.0738 15.0487 32.962
1 1.57414 2.09366 35.1111
1 22.3575 31.1149 15.8963
1 48.5762 48.8691 35.9864
1 3.03205 8.42288 7.54442
1 18.1554 14.6166 36.4397
1 5.16948 14.1877 33.0256
1 15.135 39.5173 10.3947
1 36.7546 17.3825 1.55184
1 32.6672 22.9115 46.9748
1 30.3078 0.79742 38.0257
1 44.949 1.95283 10.1533
1 29.9193 20.2751 3.17524
1 38.348 28.3053 1.82875
1 5.41418 16.547 14.2167
1 40.0097 46.0511 26.251
1 23.2545 21.7013 37.9056
1 44.3484 4.68657 38.0884
1 4.12591 32.0916 12.4629
1 4.56162 1.262 21.4756
1 39.5959 1.7558 34.21
1 34.7375 3.83202 2.68911
1 35.0741 1.49343 9.08441
1 18.1473 17.1945 0.429648
1 5.87064 45.5792 1.32838
1 17.5482 27.7652 44.8878
1 49.1707 30.9629 43.5583
1 36.7875 24.228 17.183
1 46.1332 38.0118 35.5965
1 0.55042 49.1434 8.10261
1 41.2393 34.9852 9.1218
1 15.9204 19.4412 32.2233
1 36.7121 45.8685 9.01398
1 12.0917 36.926 20.3381
1 19.0228 20.8824 44.5992
1 47.2868 13.8619 4.58715
1 19.3029 25.3729 11.7418
1 24.5575 8.25921 27.7637
1 4.05703 44.9611 14.1281
1 1.27601 5.06297 49.6964
1 0.173116 21.3867 27.8387
1 11.176 26.0956 49.467
1 18.2397 29.3943 46.8201
1 27.4079 13.2957 42.1559
1 3.7114 22.4518 12.9366
1 40.9971 31.6948 45.5425
1 16.1726 42.9846 4.95093
1 29.8726 5.06547 29.4219
1 28.2956 12.5349 4.1565
1 27.0821 7.02889 19.2377
1 3.53909 3.86456 47.2266
1 11.5568 29.509 36.8212
1 8.53217 15.689 43.7203
1 42.5055 39.1939 36.6947
1 42.2491 47.0152 0.0322743
1 30.0146 49.3467 41.902
1 46.3223 29.9519 18.1019
1 17.1697 1.40006 49.668
1 10.817 28.894 46.0285
1 15.6037 1.64286 22.7954
1 15.423 24.105 33.1754
1 34.0765 25.0986 26.4266
1 46.8155 39.7248 4.91008
1 41.4648 23.2308 21.7994
1 25.6529 25.921 2.96679
1 12.8925 45.4579 5.00187
1 0.048759 30.6492 35.1921
1 20.6538 48.6438 16.7457
1 5.82226 39.1694 3.49498
1 31.318 17.3542 40.7667
1 32.3041 14.5148 28.9291
1 34.7919 43.9425 38.6915
1 46.8974 30.5058 13.7514
1 15.2077 37.4996 15.2148
1 40.0376 4.3725 11.7843
1 8.1267 22.7281 35.7783
1 16.0575 33.623 4.74483
1 46.876 13.6677 36.3217
1 6.06215 28.3743 17.3329
1 29.219 11.6215 15.2594
1 46.5359 9.81493 8.93068
1 47.3099 39.6008 14.1654
1 18.4336 23.5795 44.1832
1 20.6192 7.98052 3.25165
1 26.1037 0.97104 22.1142
1 3.67885 36.5771 24.9791
1 33.8376 9.50037 42.0195
1 30.1932 13.3978 35.6559
1 11.1759 22.8187 17.9826
1 14.7217 21.0531 1.37882
1 31.2897 36.7715 12.3001
1 40.4038 49.227 43.3994
1 20.2246 12.0145 23.2543
1 46.0573 33.35 19.9181
1 6.63832 41.5095 6.28779
1 33.0804 48.6434 3.28474
1 13.2664 10.5961 38.1959
1 31.5736 0.888585 15.6195
1 26.9075 21.1983 23.9146
1 16.3132 36.9914 10.7716
1 24.8983 46.5104 25.3509
1 31.5263 25.4392 24.7408
1 0.769707 5.11161 18.6696
1 10.1345 42.199 21.584
1 34.0533 27.0092 3.49632
1 3.18477 29.9257 4.51146
1 37.1019 6.75609 15.2944
1 4.26107 24.1506 33.0747
1 14.0985 32.6718 0.392111
1 47.6854 5.64234 32.6537
1 48.5703 32.3772 33.0135
1 49.6722 3.18877 32.9233
1 7.61024 20.6337 14.4941
1 44.0326 37.693 2.86719
1 4.01471 41.5814 42.0167
1 43.2166 36.6906 42.8756
1 34.3179 23.9179 48.8242
1 0.451385 11.0511 45.692
1 20.9097 11.7753 6.6335
1 16.8504 2.25071 11.378
1 37.5353 19.1212 24.9625
1 12.0467 44.8052 13.4435
1 48.2865 31.3642 17.0337
1 11.8392 14.5465 4.18955
1 45.4405 46.8966 38.584
1 8.95117 23.3919 19.7241
1 3.73737 2.14967 33.3251
1 6.63536 6.17621 40.5823
1 28.0591 25.7996 19.5335
1 4.02733 4.00779 31.2228
1 2.35349 5.84253 35.4551
1 3.79118 1.05812 26.6675
1 41.516 11.2252 18.7052
1 4.03856 5.23164 12.376
1 10.7865 19.9758 24.1486
1 14.3175 22.0037 48.4727
1 4.13727 1.5114 29.2592
1 38.2944 38.0175 20.6694
1 12.6844 48.1141 47.3448
1 12.6602 38.892 27.6607
1 47.7136 42.1909 4.10918
1 31.8428 33.7246 2.3074
1 32.7218 19.8501 15.3197
1 25.2216 46.6561 38.1276
1 22.8456 24.4836 17.3899
1 44.4483 40.4806 2.83852
1 41.5187 47.2513 5.58903
1 15.3534 7.67848 20.5942
1 26.5455 37.3632 15.9736
1 1.49428 3.1459 42.731
1 13.3817 36.7171 44.9752
1 28.4591 34.0811 38.7843
1 11.3604 49.1855 6.35426
1 42.5214 24.1196 37.3937
1 40.2523 4.53966 33.4974
1 6.02436 32.1334 49.6963
1 8.82803 19.6491 43.6547
1 4.08287 32.9332 18.1699
1 4.84698 2.73145 24.066
1 31.4306 32.3527 13.9757
1 34.3547 35.9049 46.1477
1 8.66027 44.3442 1.69413
1 22.709 32.4796 29.8629
1 18.3336 26.7158 0.174634
1 20.9352 42.439 44.8407
1 29.4891 25.947 26.6124
1 48.1103 10.101 2.26972
1 29.9464 44.6833 45.6777
1 32.6853 17.6993 32.978
1 46.3273 45.2274 49.1208
1 29.803 16.2848 37.8036
1 9.10668 47.9787 13.4519
1 12.608 38.8023 3.56615
1 35.4831 43.8905 5.12334
1 25.3389 5.19479 33.5699
1 39.1226 3.57716 45.0408
1 4.08524 35.3447 8.9698
1 7.58548 47.315 40.392
1 32.5576 35.2352 26.5293
1 32.123 15.718 24.3501
1 43.0331 31.3952 31.2202
1 39.9438 40.2704 46.3487
1 9.76164 27.384 1.48293
1 27.9273 26.2005 5.10874
1 14.9738 40.376 26.9069
1 9.74395 27.4805 32.9287
1 12.1108 32.7168 13.6808
1 8.92924 7.19648 3.83074
1 35.7397 36.1257 36.6249
1 27.8075 46.5852 34.7319
1 37.8109 23.1782 11.1742
1 20.9598 32.8459 3.29322
1 26.2792 9.6297 8.16406
1 45.4853 7.00189 48.304
1 26.5916 27.4858 30.1413
1 24.5511 41.5116 40.504
1 28.8187 21.8909 16.3625
1 36.6773 24.28 32.986
1 16.1878 39.811 7.97184
1 39.7675 46.5223 21.8965
1 18.5586 22.3597 48.5547
1 25.3331 49.7893 32.783
1 33.1289 27.9602 47.124
1 27.929 25.3324 12.6007
1 9.2491 49.7509 10.7325
1 29.4961 22.2066 37.3731
1 3.95334 38.5291 41.4602
1 0.504301 39.8304 35.5417
1 13.1387 26.2553 36.6289
1 5.20553 37.514 26.6746
1 0.677164 33.2745 36.2081
1 44.0791 43.701 21.2319
1 8.55565 43.1964 13.76
1 32.173 12.7917 39.0536
1 10.2193 34.005 2.15403
1 32.5298 37.7568 42.1715
1 24.4512 19.7759 17.1378
1 31.1992 6.91817 19.7152
1 33.6004 26.3246 41.1925
1 48.7478 39.0985 22.5217
1 14.6277 16.0558 24.7409
1 30.9584 41.463 21.4185
1 24.1314 12.7307 20.7266
1 19.517 27.6503 38.4144
1 45.3167 39.3576 39.1047
1 31.9727 22.3822 33.0164
1 37.2254 18.6654 43.5572
1 28.1477 18.6714 14.0833
1 1.01423 4.23906 28.3274
1 17.9729 48.9048 38.9001
1 47.9631 40.9645 47.1693
1 19.7569 41.2671 46.7354
1 25.5739 40.7624 24.1405
1 16.5967 44.8514 32.0565
1 6.69884 21.3756 31.6065
1 32.9006 43.0224 23.4639
1 9.7507 33.9485 45.1102
1 25.8687 22.3356 42.716
1 34.3264 27.3106 7.22602
1 12.8052 48.0062 10.2643
1 15.6972 3.3619 32.2876
1 42.8026 24.4743 47.9849
1 25.0105 36.7824 26.2793
1 26.5926 18.6736 26.8945
1 4.71841 41.6634 3.97994
1 49.7197 47.1931 21.0087
1 16.6696 28.4609 8.65215
1 15.751 34.2981 18.3824
1 0.62324 13.6057 23.6176
1 11.8886 36.1509 10.7441
1 7.82344 42.3432 35.9974
1 32.0195 10.9824 30.5769
1 43.2877 23.0181 8.53736
1 34.2746 16.0279 4.86634
1 36.517 49.1174 48.8407
1 10.9135 12.3847 6.99589
1 28.3713 2.83566 14.2406
1 42.1243 43.2164 42.6073
1 38.3658 47.8911 10.662
1 13.1411 30.2084 1.01183
1 13.1265 20.8627 28.6574
1 21.7302 34.5204 40.0857
1 20.2338 26.9449 13.64
1 11.8071 43.9306 43.8035
1 37.4989 32.812 19.4002
1 43.9139 31.6459 39.8827
1 46.1339 44.8557 15.9051
1 18.1788 5.96089 0.426898
1 6.18591 37.1346 20.9304
1 30.3695 17.6501 2.02256
1 17.579 31.0627 41.8359
1 24.9662 46.9126 13.6436
1 12.741 21.0278 33.6585
1 5.35101 48.7035 30.2892
1 34.1721 19.0167 13.3705
1 12.6714 38.7245 10.4388
1 37.3602 32.4061 27.9654
1 32.7296 29.3911 12.9093
1 34.648 30.9309 16.3048
1 44.4299 31.0049 20.1443
1 2.29941 12.18 33.0473
1 8.38836 11.136 6.42518
1 22.9501 26.4557 22.7909
1 42.12 38.5009 0.761884
1 2.5974 45.5309 39.1474
1 17.7532 2.88082 35.4755
1 31.8477 36.9314 20.2247
1 9.68212 45.3259 12.1649
1 0.940513 37.8716 41.315
1 16.7937 5.75551 21.6581
1 46.0284 28.5864 38.4367
1 16.9229 13.2281 29.6512
1 25.7554 49.7265 41.0559
1 41.7258 16.3579 15.982
1 22.1644 45.6504 5.19704
1 1.52618 19.0228 38.3679
1 40.3382 27.4363 25.1804
1 37.1575 46.824 21.9248
1 15.0589 30.8606 41.4201
1 38.6833 38.6775 1.58741
1 33.545 5.54052 42.0413
1 23.4792 44.6873 13.2849
1 13.1228 34.767 9.09322
1 36.7297 46.1361 18.5632
1 5.90193 0.600909 34.1454
1 45.2458 6.19165 25.0869
1 22.1556 5.18392 7.64028
1 24.0882 37.2363 23.5878
1 35.3366 12.2574 36.8941
1 3.6953 16.7649 16.156
1 3.35201 27.6891 5.97035
1 36.4431 12.8067 1.03368
1 45.5928 35.9229 6.29504
1 47.0676 36.968 1.00686
1 29.4029 5.82478 31.9407
1 24.3796 20.7102 13.3146
1 40.1626 35.9189 19.2042
1 2.39038 11.1599 0.979298
1 17.2447 33.1572 36.0526
1 7.91976 5.18641 21.9733
1 22.9408 36.5029 40.9138
1 30.1667 30.2668 15.7131
1 39.7609 36.4083 5.0522
1 35.4992 28.5714 1.24685
1 13.6952 45.4879 28.7778
1 30.4457 9.00386 15.7838
1 4.29503 4.25244 35.4356
1 23.3301 9.29097 23.9266
1 45.6245 4.77645 28.3481
1 5.83746 11.9195 34.9621
1 8.62229 41.0758 44.0869
1 35.7039 41.6344 9.06958
1 20.4916 4.49726 12.5973
1 9.65225 36.0529 20.9819
1 7.94947 20.0753 47.2256
1 40.4969 27.0384 6.17013
1 45.9012 14.9643 24.6499
1 22.2865 24.8318 41.421
1 40.8567 45.1397 16.6213
1 41.0385 2.94538 28.471
1 25.0914 38.4046 30.3465
1 3.50093 11.5129 13.2749
1 10.9078 2.32865 3.45655
1 26.8049 32.8727 15.3273
1 9.45275 42.6286 40.2175
1 33.3767 7.21616 5.26424
1 46.3615 8.49663 36.8539
1 17.2828 21.3407 1.12273
1 3.66379 5.85847 25.2282
1 45.8149 43.6751 40.4275
1 48.4483 26.6947 13.4095
1 23.6857 40.7726 26.5268
1 33.6805 25.1352 1.71776
1 17.9273 8.21115 2.61729
1 31.7735 29.0917 26.2814
1 21.3846 24.2597 26.3194
1 46.1148 15.1092 10.2922
1 48.0618 12.572 31.4519
1 15.1725 2.62854 35.3292
1 8.94418 8.28491 18.6813
1 35.8402 41.6894 13.0982
1 36.9669 17.6616 33.9171
1 8.16973 17.7172 45.9753
1 36.0454 47.4214 44.0797
1 14.8815 12.5094 16.6911
1 37.1665 33.1932 46.6489
1 39.5555 16.1406 31.2568
1 24.153 14.3173 5.96879
1 30.2589 20.0545 29.7163
1 21.7833 21.2488 44.6032
1 48.9183 17.5181 29.3068
1 15.6217 17.007 49.3817
1 25.6576 29.0449 39.8608
1 19.1704 22.1861 23.6685
1 25.7644 18.3742 4.34215
1 5.15602 46.3599 34.355
1 48.3707 15.569 6.59609
1 19.0009 38.2641 41.0605
1 14.2045 28.4716 41.8912
1 35.369 36.1151 16.9987
1 21.9701 5.91811 45.2526
1 16.4227 31.1994 7.79559
1 37.5322 30.9066 36.6509
1 14.7551 40.5572 40.4628
1 15.0333 38.691 38.338
1 38.0873 3.08596 0.143012
1 48.2681 45.2052 14.2921
1 27.2948 17.9602 11.7277
1 18.5744 44.7085 12.6771
1 41.0772 8.81408 22.5527
1 28.6635 3.21771 2.66264
1 48.8425 48.2989 17.4464
1 25.4236 21.8704 1.64621
1 34.1831 29.6954 35.6066
1 39.4824 38.85 33.1388
1 19.8877 35.8873 6.91379
1 15.6302 18.1691 42.9722
1 4.69564 41.7604 8.53441
1 20.1134 24.2939 30.991
1 16.7926 29.7112 3.57573
1 24.7467 18.6577 11.0959
1 49.5929 42.4278 39.2305
1 49.1389 13.5148 11.4156
1 18.8317 28.8787 42.6609
1 39.1234 8.30106 14.3284
1 21.6871 21.9419 23.9452
1 36.2986 25.6801 22.5008
1 31.9395 44.384 11.5677
1 26.1566 17.8759 15.7252
1 40.5339 35.471 23.4005
1 19.5755 40.8793 25.6198
1 19.1785 47.9435 42.507
1 48.1255 21.9271 44.6963
1 1.04106 5.40029 22.7068
1 0.315406 44.6129 33.6387
1 11.6442 9.61244 23.6946
1 39.8254 3.47827 23.6492
1 3.05777 37.276 32.2432
1 21.3968 40.8331 37.7357
1 16.3647 18.0931 27.2986
1 45.3174 24.4788 14.6201
1 48.4934 23.9573 13.9451
1 33.9943 17.0232 7.94212
1 26.0256 1.91765 49.6187
1 14.656 5.71557 39.8337
1 47.745 33.3531 10.3693
1 30.1517 46.2603 31.6378
1 22.2624 4.79622 2.93924
1 47.7535 7.3586 2.28677
1 24.1086 25.1874 5.16879
1 46.859 37.5895 11.9434
1 32.7277 5.25475 15.7682
1 22.2346 15.6473 35.1045
1 4.05408 11.5647 22.5511
1 12.6153 40.9279 46.0563
1 39.3287 22.935 43.3499
1 1.72137 19.708 22.5161
1 14.9705 42.2418 24.8038
1 47.7807 24.0068 28.4616
1 30.2712 0.565405 29.5532
1 13.6489 47.0408 16.1003
1 19.9338 30.0866 28.6917
1 9.94475 40.4102 46.3118
1 26.0305 39.5124 19.4925
1 17.5706 11.4085 25.7559
1 5.73847 47.401 48.976
1 46.4113 30.9305 23.5414
1 42.0735 25.6965 14.686
1 31.3979 6.89285 45.3167
1 12.5249 7.21956 24.5804
1 20.9125 33.6474 34.6045
1 43.2996 3.36421 29.7401
1 11.1725 40.9116 11.5962
1 23.3815 40.8755 33.5754
1 31.0426 30.0971 7.90462
1 17.503 43.3254 23.8508
1 47.8626 42.4022 31.2918
1 9.68416 12.3022 39.7477
1 19.8404 2.01096 3.16026
1 30.7256 31.9575 30.5729
1 35.6016 5.17622 46.1504
1 25.1634 12.515 46.712
1 10.7367 38.4012 38.3914
1 36.1569 47.1942 36.2511
1 45.6407 42.5284 25.3764
1 34.3766 15.3237 17.0398
1 30.6805 23.7254 7.6366
1 31.0373 26.5272 14.2105
1 40.0183 46.5313 18.6203
1 33.9929 7.97554 33.5717
1 33.6323 30.0939 38.7298
1 33.7817 46.6195 37.1021
1 25.6008 12.0786 29.2937
1 13.8735 19.9068 25.9666
1 19.3636 48.1976 18.9747
1 7.17404 4.41603 3.375
1 29.3951 26.791 29.4816
1 4.77556 35.6392 28.6557
1 0.722566 39.3464 19.9217
1 16.1648 33.4116 13.8266
1 37.3158 10.7152 36.2659
1 12.2274 14.3975 21.1298
1 32.358 4.88507 24.5047
1 10.4791 44.1245 15.717
1 19.6399 5.11695 21.1329
1 27.896 16.2644 48.1256
1 17.2865 38.047 49.2654
1 38.4249 31.3463 45.3864
1 28.2263 26.2081 33.2096
1 2.34736 28.2403 2.04496
1 44.817 46.9047 11.9494
1 27.8039 18.8969 20.0966
1 30.2794 44.2703 17.778
1 45.0803 13.9274 21.5647
1 11.8259 39.2222 7.65098
1 24.6538 29.9149 25.3589
1 27.45 46.1204 8.1736
1 18.0495 7.89938 34.3592
1 12.9376 25.7079 27.9583
1 9.8654 30.854 5.09258
1 44.9941 38.7874 47.3017
1 8.14952 35.5182 40.9928
1 43.0546 1.58526 12.448
1 3.9738 7.97624 19.9169
1 38.1413 39.4195 24.8499
1 3.32309 42.8807 36.7443
1 47.8878 19.8205 49.4328
1 1.90243 18.6618 11.9565
1 8.05663 33.5519 11.4035
1 41.5256 31.7507 33.7824
1 34.0918 1.70021 35.8584
1 8.7703 33.7187 29.2429
1 34.4677 35.1642 22.6055
1 20.3818 49.2305 11.7583
1 21.0149 3.9803 42.6248
1 31.2295 30.5969 20.1373
1 9.41532 2.6709 28.5281
1 11.9987 5.18118 2.74518
1 33.9155 10.5124 38.0974
1 28.1681 41.1924 7.93584
1 43.4905 12.0873 27.2462
1 38.0306 36.3633 43.9109
1 0.574235 46.5894 37.3837
1 39.1663 39.3017 4.61955
1 36.1443 18.0019 28.7497
1 3.05154 15.5568 49.2682
1 0.050033 18.0564 6.03157
1 12.717 28.7916 15.2142
1 41.7338 16.8458 29.2335
1 22.0285 1.02123 31.0479
1 35.6081 3.98949 40.6818
1 0.182629 23.5415 11.326
1 9.12848 13.8264 45.4098
1 23.5186 13.1446 15.098
1 8.40346 26.2927 19.7358
1 4.5543 33.1363 27.4137
1 37.3359 27.1592 47.3725
1 34.7391 6.41418 13.9279
1 48.8006 3.0138 18.26
1 25.019 42.1225 12.5475
1 40.9609 16.6321 46.0283
1 2.48852 41.2842 5.29435
1 8.99222 12.3121 25.7299
1 27.1691 3.35805 11.4948
1 36.0251 33.8717 9.07352
1 28.6105 1.79632 43.9218
1 17.512 26.7805 20.3606
1 0.724149 0.782557 21.7757
1 33.9877 19.6891 29.0949
1 35.9763 3.64689 10.7455
1 43.2495 15.4859 23.2564
1 33.3357 17.9163 25.5707
1 4.6399 31.8717 20.7525
1 47.1747 44.4549 44.1782
1 38.886 23.5969 38.3626
1 17.3728 31.9298 46.3504
1 28.4084 1.33935 10.2861
1 35.7711 11.1791 21.2138
1 19.9559 21.1204 16.9712
1 33.4949 14.4645 12.5994
1 29.8541 21.2539 14.065
1 0.509642 16.5903 49.1979
1 46.0179 4.61384 5.60406
1 20.7387 10.5904 38.3831
1 40.632 30.593 26.0806
1 15.2149 41.9561 7.39574
1 37.4663 41.8853 38.2973
1 23.4914 38.3539 33.1259
1 16.5576 15.5253 8.84348
1 45.0849 45.6644 22.7924
1 44.9246 38.8274 28.6953
1 32.7195 27.1136 17.3593
1 13.8157 32.5362 43.2293
1 48.4896 19.7578 20.858
1 15.5253 21.4185 19.7996
1 44.4031 29.1864 15.0313
1 43.6567 43.6426 38.6447
1 16.0365 41.3316 2.8732
1 17.9062 23.125 3.22739
1 41.4878 40.2976 28.9084
1 39.2942 43.0168 0.58797
1 11.3552 8.73332 34.3971
1 35.3778 0.512711 14.8941
1 47.3586 8.38553 31.1416
1 29.3432 37.4538 30.9589
1 33.8691 30.122 4.09543
1 36.1196 36.0173 6.74091
1 35.1427 33.7035 24.8005
1 11.0154 15.8677 23.1158
1 30.3008 23.2087 23.7399
1 45.7687 21.7155 32.5284
1 28.8466 20.7197 32.0048
1 13.5407 0.115147 49.5021
1 12.575 2.34231 33.6705
1 37.9198 24.4917 13.6496
1 24.2584 6.06261 35.9051
1 24.8735 5.35278 3.87303
1 44.2906 18.4392 23.2996
1 15.8895 23.1174 23.0762
1 28.7581 41.8156 31.9258
1 40.3915 0.406494 25.1927
1 14.9917 9.32806 42.2248
1 6.47947 11.4732 8.41382
1 10.5295 19.6022 48.5056
1 13.2874 1.03231 7.61446
1 48.4077 0.439183 33.6345
1 43.932 33.4208 14.7727
1 39.387 2.07081 38.9169
1 2.89064 4.50479 9.01427
1 42.7177 35.1684 24.5875
1 33.8096 29.0712 28.902
1 44.2966 41.7579 35.7512
1 46.0983 42.2788 11.1657
1 30.4343 10.0798 28.2106
1 3.1675 38.5351 23.1721
1 15.2943 11.7073 45.8285
1 41.6244 11.934 3.5537
1 46.3531 14.3194 40.8308
1 9.07579 45.5885 17.4673
1 18.8272 13.8453 14.6518
1 7.43445 25.2803 38.7603
1 39.5538 48.8884 30.0342
1 6.31082 28.9475 32.1976
1 31.6859 9.46012 5.76683
1 29.1211 44.3079 33.3372
1 34.9328 47.0545 12.0133
1 15.4488 43.242 39.6594
1 15.8159 3.13857 44.2344
1 14.5671 5.16873 42.7867
1 36.9581 1.53193 41.2568
1 42.6191 9.48178 24.9637
1 39.6423 49.7244 40.6996
1 40.3926 33.8707 35.1888
1 2.04494 47.5978 6.22066
1 26.8045 42.1511 19.9142
1 26.2866 43.3183 3.16761
1 11.9171 34.2641 28.1575
1 41.2842 42.8153 31.1047
1 10.9359 9.92503 9.17876
1 49.502 37.4373 47.1592
1 40.1263 15.526 0.176062
1 38.9316 29.3599 16.1112
1 36.9128 20.2599 16.2005
1 49.0755 35.1813 29.6847
1 10.8286 22.6883 2.51814
1 1.87339 6.90385 9.45359
1 35.7437 36.1535 48.5245
1 7.62614 48.4997 43.0827
1 33.308 31.4964 24.6451
1 40.5271 42.783 35.0546
1 44.8933 11.7355 10.7107
1 49.2805 7.37927 19.548
1 13.8001 48.3078 19.9927
1 39.1164 23.511 18.6572
1 6.28095 44.6735 25.7639
1 14.9308 4.01564 18.3366
1 18.9536 38.5718 27.0271
1 17.1901 46.2508 34.2298
1 18.5484 5.48859 41.8972
1 9.51046 24.7567 13.9861
1 35.0558 13.0931 4.97976
1 47.8733 3.16068 15.7963
1 47.498 11.7266 40.805
1 38.2927 12.112 46.8528
1 20.2911 41.0946 12.8041
1 29.3365 0.582194 2.03323
1 23.7546 16.3094 30.1075
1 1.91307 48.9212 35.4953
1 18.9983 29.4383 13.2694
1 25.0189 22.6764 17.5622
1 8.12429 1.67525 8.84542
1 15.745 9.91472 29.76
1 30.9233 9.915 20.49
1 10.0472 31.4261 35.2993
1 22.0102 29.5937 36.6185
1 0.121767 11.6957 2.90541
1 34.1152 44.4866 31.4269
1 44.8765 33.0161 37.3607
1 2.36534 32.5771 1.69428
1 38.0095 28.3367 28.2211
1 22.1948 11.0507 45.944
1 4.14152 36.6383 34.5012
1 40.4342 18.9817 2.84392
1 10.7877 6.90621 5.8173
1 33.6606 2.51834 18.5466
1 17.9072 40.9699 15.9277
1 32.9934 20.5245 42.05
1 27.0015 33.0498 10.8281
1 43.6845 18.1465 0.761017
1 16.2796 39.678 30.7357
1 12.5445 32.7492 34.7946
1 25.4842 15.4166 37.4435
1 12.6161 38.4334 15.8997
1 41.2518 40.8486 41.0765
1 3.34134 46.2161 48.4401
1 8.82829 27.2073 16.9958
1 43.5748 3.23493 19.1125
1 43.8653 11.2899 49.6848
1 34.4834 34.9325 29.4561
1 9.05806 46.2716 22.72