4096
 Atoms. Timestep: 21460
1 43.526 30.7747 17.97
1 36.6964 24.4529 17.4249
1 19.7668 45.6065 34.9153
1 26.7682 41.3057 42.1718
1 44.0335 16.7675 24.673
1 17.6588 43.7276 36.8275
1 40.2378 30.0197 22.2852
1 43.0999 47.8586 28.6862
1 48.6572 2.86019 43.9339
1 26.9703 46.6368 31.6104
1 16.8273 5.34161 12.0288
1 34.4002 37.5942 34.2847
1 24.8372 42.7935 48.1074
1 42.2589 4.28243 14.6618
1 19.9657 36.1083 47.5766
1 18.8902 47.4821 25.4083
1 38.4784 25.7127 36.4111
1 13.3186 25.9292 18.1277
1 16.9713 48.9691 26.2339
1 44.5066 20.4148 14.8439
1 39.0098 26.6104 6.03952
1 46.827 31.1419 0.762687
1 4.10109 35.3519 41.1453
1 1.30372 14.7797 24.7422
1 21.2299 12.1952 44.4497
1 6.90575 32.7023 21.8155
1 20.3782 11.6572 17.2539
1 9.8597 11.7555 17.4478
1 2.1967 13.6657 36.5526
1 5.75519 45.9379 49.179
1 26.3855 42.6511 34.649
1 5.82764 0.190573 25.3934
1 41.8733 9.47167 45.2373
1 13.3624 18.6096 24.7445
1 36.9388 41.2339 42.9064
1 11.4173 29.9934 23.8001
1 0.844096 14.4409 44.5384
1 19.4822 30.6627 1.75405
1 49.7741 35.8593 2.88828
1 39.2449 17.7449 11.3342
1 30.7436 35.1855 30.5026
1 39.5201 26.7857 11.8741
1 49.2414 43.1986 17.6238
1 45.57 37.5469 2.31663
1 9.3885 10.4089 8.64863
1 20.6359 26.3358 42.0755
1 33.3164 30.2424 17.2966
1 13.3678 19.2722 13.4758
1 16.256 4.68499 29.9685
1 27.7876 41.571 11.0434
1 46.0859 49.0777 35.2276
1 37.4063 9.4492 45.2646
1 21.1264 11.2606 36.5647
1 5.15734 25.156 40.5024
1 37.2174 24.0947 42.3612
1 31.6187 28.066 28.1178
1 43.6439 9.479 2.24626
1 43.4156 1.67184 35.8236
1 40.016 1.24951 49.1321
1 12.1527 15.5871 11.0232
1 39.1098 38.289 39.8771
1 11.4782 38.7203 36.6508
1 46.9616 48.5221 45.4307
1 14.9315 20.1834 37.7713
1 3.22301 3.24378 1.45666
1 49.5502 9.62953 16.1285
1 31.9684 11.5372 42.6971
1 30.775 44.7478 20.8176
1 29.6785 24.1771 45.2452
1 1.00874 18.2553 47.4314
1 21.6057 1.82222 23.3078
1 31.519 22.1049 10.3539
1 19.695 6.11843 30.165
1 30.6681 42.0354 7.58164
1 35.5544 37.943 17.6655
1 12.2479 43.5779 30.7716
1 46.1635 16.718 2.6546
1 12.821 32.517 23.519
1 35.8252 17.7381 17.4547
1 43.6352 40.9776 2.40872
1 35.7808 21.254 3.28201
1 36.0251 36.3487 25.0247
1 15.1316 2.62185 28.6064
1 0.219734 37.0943 16.0466
1 29.2108 12.0127 35.6433
1 22.7862 1.92998 3.99119
1 16.3305 37.4524 7.34377
1 22.5583 42.8844 10.3381
1 2.3518 14.5762 16.7243
1 45.3973 32.4469 37.7334
1 30.7894 49.4769 28.2476
1 15.5012 39.1165 17.6144
1 42.3316 1.23797 4.69767
1 30.3564 1.79583 24.16
1 13.4498 13.804 25.3794
1 47.7913 10.8736 25.3413
1 20.6473 4.10504 38.823
1 20.9063 6.25118 4.14015
1 39.7918 7.8065 44.6893
1 7.76026 35.001 42.5723
1 37.3085 33.1631 18.3176
1 42.7465 13.8485 1.03975
1 21.4555 23.5839 14.5583
1 12.6032 34.1634 17.1745
1 41.3128 15.6048 11.4135
1 43.3402 24.8687 24.355
1 48.6983 24.936 7.755
1 10.8896 48.862 2.69226
1 39.1667 12.6711 37.2963
1 10.2197 44.0455 43.1989
1 24.8891 19.8704 9.84181
1 15.7381 35.7028 23.2082
1 28.4012 27.7783 35.1389
1 2.06592 35.6128 44.5093
1 42.3202 32.0885 6.5737
1 34.8127 30.8206 13.5223
1 27.0488 12.6223 37.603
1 26.0576 3.99484 27.8071
1 40.2449 22.3604 32.0184
1 13.9529 2.42602 14.1348
1 12.2934 24.7942 45.2598
1 41.3185 13.4652 27.2564
1 46.4794 3.94753 42.8857
1 36.0538 27.4108 44.8175
1 15.1707 0.146698 36.69
1 43.0395 14.6049 5.45541
1 24.7107 0.442068 27.3099
1 15.1568 10.1958 13.8679
1 26.9502 7.03171 31.6372
1 41.5439 48.0486 8.04008
1 25.4252 37.811 20.7028
1 36.1853 29.3348 17.8924
1 22.3872 11.729 40.9985
1 22.7474 29.8826 11.2647
1 0.555965 14.0752 31.6586
1 44.6465 41.3411 12.8493
1 16.5674 21.2597 7.93537
1 7.8445 37.4205 21.8286
1 38.0111 11.5293 34.0671
1 6.38609 37.8949 25.7621
1 27.7102 11.7654 31.0021
1 35.1834 44.7353 31.4935
1 26.9841 12.9353 46.6082
1 25.8989 1.6433 15.8832
1 7.2175 35.8266 17.4869
1 46.0424 37.965 16.3331
1 45.8505 10.2164 3.2861
1 34.5028 41.2255 41.2603
1 28.1401 15.5772 49.4489
1 44.1169 34.0747 2.66621
1 5.09297 6.37972 11.4557
1 37.9211 45.8254 22.7562
1 8.57992 17.6409 13.0898
1 13.076 48.6933 30.5945
1 3.63787 34.1831 25.2609
1 0.388586 37.4025 18.9986
1 43.75 9.07107 33.4202
1 14.1701 41.7174 25.9384
1 42.9301 4.89952 46.1651
1 33.6686 36.168 7.4918
1 22.2469 5.54579 29.6134
1 10.9729 15.1718 44.5143
1 16.9232 18.3794 25.4623
1 25.1551 10.9648 5.04545
1 44.4162 4.0669 10.6959
1 0.237716 5.90553 13.9038
1 36.228 18.4967 49.4619
1 34.5189 43.4149 25.5949
1 30.9738 44.9941 2.93776
1 34.8282 20.5937 39.4406
1 46.2386 48.5092 25.6003
1 31.7522 19.4658 33.9464
1 13.3038 47.3616 28.1296
1 32.7059 22.0071 41.6134
1 31.1113 30.4074 9.43012
1 27.5724 37.2902 10.8364
1 17.7947 48.0704 42.2965
1 21.5573 45.8407 28.2601
1 20.0733 19.087 23.6178
1 8.9166 31.6554 39.958
1 2.38262 22.9047 24.9473
1 21.6241 3.91277 7.71639
1 34.4247 47.9266 26.0346
1 26.7379 20.7111 43.2553
1 18.6139 0.803145 34.0452
1 27.6198 22.4892 39.4966
1 29.1134 21.4548 31.4358
1 0.568211 44.7643 10.2321
1 21.2966 39.9029 36.929
1 14.9115 5.27349 8.70777
1 49.4461 32.7792 39.5683
1 10.5518 30.0559 41.367
1 36.1181 18.529 37.7269
1 4.54499 49.0147 2.04102
1 45.4424 42.3384 24.4688
1 28.854 3.14739 39.6649
1 0.425716 4.29443 1.87037
1 32.0228 34.3526 11.9335
1 22.7683 29.9688 22.3519
1 47.0926 5.953 27.5616
1 31.6445 15.6718 24.5277
1 16.8265 19.3399 42.3153
1 15.4922 24.9727 20.4078
1 11.9439 10.8245 35.4463
1 46.9533 7.91462 5.87978
1 18.1217 45.6885 3.24289
1 18.7613 20.4809 6.13737
1 39.9495 44.4667 10.1442
1 24.8741 11.0235 8.21347
1 17.3423 15.5026 25.7096
1 30.0712 47.3719 20.7129
1 41.61 5.40099 27.7382
1 32.6491 17.5016 44.4009
1 5.09383 47.4994 46.9507
1 29.2066 44.3996 8.33982
1 39.2713 9.05944 34.7178
1 8.85218 27.5058 34.9748
1 8.51283 39.2941 19.8115
1 11.941 4.87749 9.13986
1 46.672 4.52698 4.76703
1 18.9039 45.5156 23.1751
1 9.68031 7.01998 43.505
1 45.7003 20.0605 4.75341
1 27.5177 5.30098 8.3766
1 43.8953 20.476 23.3292
1 12.6972 21.1287 23.865
1 33.5323 27.536 23.8763
1 2.55255 16.2181 35.0098
1 12.856 22.206 40.5881
1 37.5234 46.5767 49.4304
1 10.3555 24.4802 14.2679
1 23.3573 42.3655 32.1591
1 16.5419 32.4084 10.5848
1 21.9453 4.69419 24.3384
1 32.3927 48.6812 21.1032
1 29.4022 25.5095 27.6385
1 15.705 28.2183 47.1155
1 12.3418 20.781 47.5932
1 2.22839 25.0347 10.3279
1 43.9147 26.8229 40.9985
1 26.9535 23.9017 5.60643
1 11.2368 48.2351 36.2933
1 31.6103 24.1671 24.167
1 4.18666 0.934242 5.87351
1 9.42268 44.2631 48.9999
1 8.95451 24.0669 41.7965
1 22.0308 41.7599 27.1582
1 26.7277 29.0357 5.27753
1 42.8585 7.43039 6.5993
1 19.9791 15.4828 29.7358
1 43.0124 42.3228 38.1386
1 26.1037 20.704 37.7664
1 35.0922 38.0473 29.1794
1 29.0897 11.1628 44.2271
1 16.3387 10.4676 18.832
1 15.892 42.8137 2.22055
1 38.7919 11.821 24.2277
1 12.7941 9.00519 20.1637
1 33.7753 29.9035 33.2646
1 3.2205 46.5796 38.7499
1 27.9071 15.7259 29.1285
1 7.15725 16.301 0.346164
1 31.108 41.6344 25.3123
1 40.017 10.4396 0.487201
1 43.5277 38.8126 12.9074
1 8.14291 45.8882 4.4561
1 12.1803 0.50227 13.3136
1 13.1432 30.855 40.3854
1 16.6171 3.1944 48.334
1 44.7236 34.4655 30.3492
1 15.2469 39.6081 22.2368
1 33.4785 25.4846 12.4744
1 33.8633 43.2383 6.93039
1 20.3661 13.6543 5.81856
1 16.9876 33.393 6.12237
1 1.27631 33.3601 0.542282
1 1.99953 42.0785 35.9459
1 22.6575 8.13346 28.3017
1 22.9699 49.7228 34.8313
1 5.74455 44.5302 44.0852
1 35.4556 3.74286 6.35575
1 16.6369 14.029 15.4931
1 46.3947 8.83357 38.3772
1 18.508 30.6863 22.4243
1 18.7726 6.09234 6.73739
1 1.02637 13.1985 20.791
1 14.8142 15.215 44.4404
1 43.4212 37.9496 28.6226
1 3.0856 28.6847 8.84873
1 35.6588 31.3735 32.05
1 38.8995 16.5756 24.9988
1 8.14967 32.236 2.11464
1 47.5467 25.0959 42.5162
1 8.09323 39.7319 43.1474
1 34.5587 16.1741 30.0257
1 32.2768 33.2201 44.3796
1 48.3864 7.9604 12.7168
1 23.602 20.9514 34.3184
1 40.2001 3.37459 24.1278
1 28.6827 16.2608 26.7576
1 46.5449 48.8615 12.3984
1 9.25795 41.9638 5.98569
1 24.0733 46.5545 8.3865
1 25.5038 6.79229 26.0408
1 8.54936 14.939 45.8957
1 39.6616 8.76442 47.9625
1 13.4236 24.1179 13.4544
1 2.05619 3.46504 17.2276
1 44.0576 6.78291 1.68651
1 9.99653 21.728 41.3017
1 0.904182 28.1463 30.3883
1 41.5975 21.4368 8.51006
1 8.35111 43.1479 37.6256
1 45.6066 1.75805 9.18547
1 20.6252 40.7106 28.9574
1 45.7338 43.2137 48.0753
1 36.8954 18.8133 46.3163
1 6.49151 19.7789 22.3578
1 34.54 20.9408 28.7807
1 16.9236 48.1634 30.0251
1 5.06528 13.8064 20.845
1 37.8431 37.0701 8.94858
1 28.8071 34.7988 49.2489
1 7.41215 33.9967 26.8103
1 13.6398 39.3977 41.0201
1 4.92735 27.652 36.886
1 3.15739 36.1434 36.7697
1 34.7019 19.5396 45.0518
1 3.62184 46.2501 20.5677
1 7.89722 1.50687 41.4946
1 43.8681 28.8001 8.6803
1 16.5519 7.61583 15.8563
1 15.0121 1.6192 20.4421
1 31.063 7.5958 27.4339
1 48.3262 19.233 49.3034
1 26.7016 34.8984 9.90162
1 38.9964 44.0998 37.5396
1 1.82256 47.3012 42.8527
1 5.53 39.9333 32.6189
1 4.36448 46.1754 36.0381
1 16.7929 41.9983 26.7219
1 -0.145089 17.5064 27.0368
1 0.200456 25.2565 48.2296
1 38.6729 0.0276549 29.5019
1 43.2032 19.7755 32.2726
1 8.94355 17.8797 43.115
1 0.955059 11.6324 28.6504
1 40.9206 16.5655 30.3454
1 32.4425 26.3463 42.7791
1 33.7873 15.966 15.8531
1 19.3655 4.37182 26.3095
1 43.1591 21.6249 0.203089
1 0.258606 40.5314 15.6902
1 16.9543 10.7231 43.7792
1 2.24759 24.9758 40.7265
1 42.5781 28.0166 34.117
1 4.73395 6.41787 33.7415
1 14.7962 10.0503 3.61227
1 6.28473 1.56499 27.5835
1 6.33746 48.0185 22.4819
1 26.2184 14.9065 13.7437
1 3.0761 39.0197 32.6729
1 32.2369 47.1941 4.19874
1 14.8072 22.9068 44.5711
1 45.7618 38.6533 20.1809
1 14.5573 18.5382 27.3119
1 28.1145 38.6094 17.5787
1 44.342 5.28848 17.5664
1 15.4442 5.80209 18.9092
1 4.46042 24.7326 36.6358
1 44.2646 13.9809 24.1303
1 42.7614 6.26248 49.2132
1 11.5718 46.0312 9.21863
1 28.1168 10.2705 40.6575
1 46.0502 37.0013 41.0101
1 32.8962 37.1902 12.7142
1 3.1214 39.8321 13.9381
1 39.8237 0.715181 8.12281
1 46.2015 14.2047 3.96472
1 19.1371 5.40339 42.7593
1 45.3551 11.316 35.8382
1 3.19853 43.2909 44.1088
1 1.58995 39.5875 35.0129
1 5.9068 14.0184 13.5118
1 25.3383 48.2007 1.75904
1 16.2922 2.36074 41.771
1 20.2387 28.6543 3.74224
1 47.7265 19.3695 38.091
1 15.9781 15.651 35.0284
1 36.2549 49.3891 25.0713
1 6.47246 7.87033 35.0638
1 8.16097 8.50932 29.4488
1 3.47547 26.525 25.0746
1 3.72168 18.9217 25.0403
1 48.1669 46.5749 38.0839
1 32.4494 39.1437 32.9162
1 18.8455 31.3702 42.2655
1 29.035 26.8247 38.8525
1 46.123 18.2411 9.63202
1 45.0709 11.3106 48.4741
1 28.8267 40.4269 43.5323
1 49.6215 3.92953 28.5719
1 30.8527 42.1367 39.8946
1 23.2514 22.2314 10.4569
1 1.45335 7.03742 2.19701
1 48.3963 19.8875 43.9083
1 29.4733 25.5014 31.9509
1 45.6084 41.0806 0.510626
1 20.6479 26.6969 12.869
1 7.57562 20.7175 34.9482
1 24.133 10.0509 49.3059
1 7.08235 0.143132 47.4148
1 16.025 0.408063 7.32496
1 13.8183 39.56 36.7086
1 35.576 13.7825 25.9854
1 6.69056 14.2775 30.6067
1 20.6712 36.7162 19.6775
1 26.7088 16.2547 43.3066
1 3.28484 41.3227 2.79665
1 47.9135 16.9343 47.3181
1 10.7404 2.13215 38.0529
1 37.1487 4.67329 33.6563
1 19.7083 7.88689 17.877
1 11.2302 4.59815 34.8004
1 16.3591 22.6968 13.0819
1 36.3931 10.9664 47.5296
1 13.42 11.1035 37.2507
1 9.70395 30.2828 28.6644
1 5.07114 32.7326 26.8189
1 45.4584 45.2603 23.8639
1 18.3058 17.3258 18.3103
1 39.1029 12.7823 12.6208
1 29.6361 44.2816 28.9439
1 44.4946 32.9182 5.04017
1 40.1558 24.3101 17.4706
1 6.79446 41.0536 5.62027
1 32.4133 32.2545 21.1918
1 22.1686 33.1012 29.7967
1 37.829 29.6468 30.1916
1 14.0868 35.9478 7.96435
1 2.73223 37.4482 27.9066
1 20.7423 10.7301 4.85334
1 38.266 8.62204 40.1425
1 11.0322 18.1967 45.0183
1 49.8231 40.171 39.4635
1 15.9165 22.974 30.3033
1 3.84783 28.8922 24.2492
1 5.94836 34.1063 5.28098
1 34.6417 47.0701 2.37113
1 40.9733 25.6336 2.47501
1 46.8838 6.41169 30.5843
1 20.6116 39.3065 45.6425
1 12.3699 17.6547 28.8023
1 23.0355 7.95831 43.097
1 13.2411 36.7453 29.9091
1 22.1578 14.7028 21.7279
1 11.0503 18.1041 5.93489
1 7.55611 48.2089 27.4222
1 8.41361 4.97715 48.873
1 11.1059 26.3711 21.7785
1 1.9311 29.2718 41.1118
1 49.0293 29.2258 42.5762
1 14.4491 19.9078 6.89717
1 6.80946 7.95705 37.6939
1 7.10465 1.41395 22.9268
1 13.8193 41.5027 30.3829
1 26.4606 17.7997 21.0732
1 46.8306 5.24096 14.8024
1 12.7662 2.10489 6.23583
1 31.886 39.7632 3.38033
1 42.6191 39.1745 34.6432
1 18.1395 38.992 3.86984
1 48.5129 26.3907 5.21827
1 30.8055 20.9062 4.31108
1 30.79 21.5509 23.6961
1 0.721502 15.5555 5.05925
1 7.58607 33.6138 11.4221
1 36.2516 8.49108 31.281
1 44.4674 6.61215 14.8131
1 44.4718 17.6338 35.5881
1 36.1209 8.9431 10.7265
1 41.1107 31.7359 16.755
1 23.108 0.229289 6.23346
1 1.93183 49.1573 36.8419
1 1.03257 0.167342 30.3814
1 23.4888 24.2474 39.5971
1 45.8552 35.0639 24.3593
1 16.2361 2.29145 37.6263
1 14.1301 43.8733 21.7509
1 46.8882 32.5067 33.9473
1 9.41999 32.9768 28.6289
1 15.4012 8.99169 29.6476
1 2.41616 28.9785 13.1708
1 28.9887 14.2146 6.85179
1 19.2861 13.5955 43.1141
1 19.5137 15.2219 21.664
1 20.9602 1.30375 29.0392
1 4.8811 42.9534 40.327
1 41.3029 15.9186 33.5838
1 39.6455 13.3612 39.9575
1 24.9195 46.6211 33.4383
1 38.6016 37.7715 4.67092
1 5.17423 17.847 13.057
1 10.6591 36.7736 27.9893
1 28.8548 37.5864 23.8428
1 3.84622 31.1446 0.965885
1 4.78692 38.5947 49.3848
1 15.907 9.33462 40.1502
1 17.0284 44.4069 41.1013
1 14.7688 37.963 27.8474
1 9.40891 34.8009 14.6708
1 17.4533 34.0399 36.3073
1 6.30033 15.2154 8.15258
1 9.52125 39.6622 34.97
1 37.0564 27.1322 34.2771
1 7.93589 20.2146 47.1861
1 17.7701 21.9679 4.08753
1 18.2896 44.3001 30.5254
1 28.3258 6.72369 45.9696
1 42.944 6.87319 11.0765
1 44.9039 21.4432 35.9381
1 17.9766 45.1203 10.6611
1 45.2143 27.6714 27.9113
1 17.5147 16.1681 46.6727
1 3.52449 10.6941 32.745
1 34.5704 34.0524 6.09042
1 25.4535 40.8212 12.5036
1 33.7171 9.12579 21.3076
1 42.6971 15.0252 28.9698
1 40.7402 14.5832 13.9032
1 26.4682 31.0575 23.5507
1 43.919 28.0608 6.05797
1 23.4211 27.8166 26.0304
1 26.7499 10.5159 48.5434
1 46.3004 15.5289 9.48578
1 31.883 43.3782 46.6968
1 29.8042 4.59086 47.0073
1 46.3609 44.065 35.6948
1 32.6167 19.0467 12.2326
1 9.59181 2.67723 31.2291
1 36.5519 33.5779 33.7585
1 9.43301 3.99162 36.7833
1 45.7436 41.1805 18.9431
1 35.7653 13.3398 17.8605
1 13.0944 48.7398 25.9898
1 22.0051 41.7634 38.5544
1 38.6529 28.8826 6.93252
1 47.5719 16.9399 44.3917
1 41.289 11.7711 36.5066
1 13.1882 26.7354 15.3478
1 43.4789 22.6048 38.5933
1 19.8536 41.0641 20.3376
1 9.38512 19.5628 39.7799
1 7.71269 31.8929 4.84392
1 19.5194 49.8654 36.5906
1 7.2127 39.4288 23.4541
1 45.6858 45.4412 19.0367
1 43.4337 6.46519 23.8496
1 47.9926 25.7999 2.49486
1 15.8391 1.65247 44.4346
1 29.2695 10.0357 49.6061
1 45.1297 15.8269 6.88197
1 38.1931 21.1592 45.6657
1 30.4003 37.4967 26.1491
1 31.6344 42.5181 29.4718
1 2.25188 26.8501 49.7349
1 46.4205 41.867 10.9249
1 29.5837 35.4724 38.2423
1 7.27263 12.4757 21.2391
1 28.7359 3.95247 22.3563
1 42.4855 7.09111 31.3976
1 25.2513 7.41658 2.17805
1 21.0526 35.9505 22.2213
1 14.3326 31.2746 13.7356
1 48.3301 45.7572 23.4159
1 28.9472 1.42199 21.301
1 8.31873 46.7435 49.237
1 12.6037 19.9681 4.01448
1 18.0777 5.26677 38.7228
1 42.5336 4.38251 41.9605
1 44.7395 40.1133 9.41443
1 36.6963 6.70063 38.073
1 25.3484 28.1058 12.2872
1 43.0373 32.4632 31.4101
1 6.56615 29.4041 12.9568
1 29.3769 11.447 24.1243
1 6.50077 38.6873 41.0753
1 18.3719 35.2703 40.4755
1 30.9425 12.0996 6.50897
1 23.8007 7.60006 34.9065
1 8.76182 26.9505 22.6514
1 8.25101 14.0046 38.61
1 14.0711 13.714 38.41
1 27.4385 38.1658 3.0906
1 46.098 24.0995 20.7284
1 12.8237 44.6468 11.4978
1 43.7287 15.0018 36.8429
1 44.1331 48.8083 37.3899
1 21.7241 19.1394 16.5888
1 46.7498 9.44566 14.6321
1 36.8511 19.8095 29.4462
1 19.7742 23.8323 22.6559
1 7.20581 10.9177 10.0871
1 27.1017 6.5604 -0.151682
1 23.5406 2.49062 35.2916
1 23.8628 42.4029 18.627
1 13.779 30.2962 17.7606
1 25.1034 4.83668 10.33
1 31.7208 6.14703 48.3895
1 43.7246 28.4109 30.2
1 7.79754 4.97182 38.8478
1 23.4831 38.7081 35.3236
1 48.428 6.86654 37.2151
1 44.1659 5.93194 43.6581
1 11.6505 35.0791 49.5081
1 12.6791 40.7269 4.76801
1 31.6512 8.66396 3.97728
1 42.6132 11.1582 20.818
1 10.2588 0.825717 33.3373
1 24.298 30.4165 25.2635
1 21.2758 46.7563 4.95646
1 33.8596 21.2832 11.5664
1 16.183 39.6297 49.1721
1 37.9751 3.50066 26.0568
1 10.5061 36.6651 31.6851
1 44.0416 17.3604 31.1619
1 27.4189 20.0221 45.9913
1 4.91373 6.2046 47.0342
1 42.2624 27.4036 38.4925
1 38.5575 7.28019 16.1557
1 5.81097 40.9697 28.345
1 18.7533 1.52971 26.2619
1 22.896 19.3199 7.06943
1 7.84125 43.7358 18.9374
1 49.5791 10.8498 3.56259
1 45.607 3.78316 49.4629
1 45.3836 26.0769 4.94879
1 49.3458 41.9798 32.5221
1 28.5298 41.5528 14.0043
1 14.8969 26.5514 8.32854
1 2.28545 43.7023 46.5571
1 44.9771 10.2344 20.7447
1 40.5071 15.8994 4.91701
1 45.9411 8.62996 35.2426
1 47.7712 2.17705 6.89409
1 1.67632 2.6979 8.39925
1 23.0584 24.4717 36.9272
1 7.82974 42.4439 26.8152
1 3.46535 20.3346 9.01175
1 26.7415 43.588 4.09617
1 13.0874 30.6474 11.3975
1 4.61547 46.2877 1.77693
1 40.2861 18.8697 25.1124
1 39.3038 8.20817 1.68908
1 31.03 10.5529 32.766
1 37.9214 24.0094 25.6184
1 7.59503 35.4908 38.2889
1 30.7056 11.4017 12.573
1 4.1964 15.933 30.2362
1 11.2816 39.4194 18.8631
1 32.5167 29.9636 24.0793
1 13.5954 16.4516 2.0444
1 1.90429 3.05853 46.5458
1 6.82333 16.7893 44.5522
1 8.06151 26.3388 30.4288
1 26.5123 -0.0170768 41.6003
1 23.633 30.8639 30.0705
1 20.3647 2.52016 -0.0278704
1 22.1569 41.8338 45.6415
1 2.47554 44.2235 39.8453
1 35.8956 47.5839 35.0478
1 28.8575 28.6218 0.0706139
1 19.0808 24.5386 3.51131
1 19.6481 6.99933 46.9689
1 19.5882 1.9525 16.3562
1 24.2276 24.7615 32.8418
1 22.0282 18.562 27.2143
1 10.3991 47.3733 20.083
1 28.4035 32.3289 27.0509
1 14.4078 35.3811 15.9768
1 20.148 4.87965 20.3556
1 3.52657 19.0542 48.7215
1 1.66652 33.7492 20.812
1 32.6034 23.3529 2.89702
1 10.3005 27.1765 15.1703
1 1.0163 37.667 0.932278
1 -0.0689642 24.9617 36.9363
1 6.39426 4.11647 17.444
1 30.4112 38.3753 46.7017
1 15.0212 1.44677 26.1551
1 22.1822 38.3033 1.47685
1 29.0499 43.0853 35.7432
1 19.8034 45.6748 8.72814
1 22.2392 15.2245 7.33022
1 39.0436 29.3352 9.3017
1 1.99656 4.51098 39.8968
1 10.1679 44.4537 46.0687
1 4.33337 15.526 12.6018
1 8.85233 30.7416 24.4016
1 12.703 36.3776 5.94326
1 14.7337 6.39584 28.4946
1 0.529166 38.3876 29.2139
1 39.9118 13.8572 9.8156
1 35.6697 40.6586 25.4951
1 9.69381 27.8998 39.5411
1 13.0127 13.9658 48.1271
1 34.1912 11.3753 17.5769
1 34.1565 16.9948 47.667
1 10.0405 0.939757 9.43367
1 47.384 31.4798 21.6763
1 31.8255 36.1556 2.35329
1 41.3972 -0.00839464 28.0752
1 45.5242 34.9689 37.1556
1 17.8837 48.4543 48.9962
1 11.6577 22.0329 45.3432
1 19.9556 11.4172 19.9418
1 33.9424 17.6341 24.2576
1 33.3196 44.5031 19.8629
1 46.6864 11.222 22.7998
1 35.5439 39.0297 23.079
1 31.8214 19.1908 39.133
1 49.8149 26.6081 11.2196
1 40.9422 10.0624 24.3021
1 41.179 29.1614 42.5201
1 3.698 12.6513 40.1684
1 6.20434 5.70526 19.6329
1 5.10124 32.0868 37.9389
1 49.7864 26.3807 13.7457
1 16.7032 8.30768 2.27711
1 18.1849 48.7552 13.6972
1 2.73397 22.2803 5.31961
1 27.3211 44.9228 40.2017
1 4.04036 45.297 15.9886
1 40.7032 9.3055 21.4171
1 24.4839 31.4268 42.5997
1 45.9155 48.7949 42.9094
1 38.269 38.7558 42.4235
1 46.7187 23.3049 49.276
1 25.5842 39.9808 4.19004
1 21.7826 4.04435 34.0852
1 38.0131 24.1265 48.3527
1 32.307 1.09531 33.7069
1 3.38053 23.9267 34.4211
1 28.6402 19.1834 20.12
1 47.7732 31.3038 38.0249
1 31.409 27.3097 2.24152
1 5.42314 17.2968 15.825
1 20.8929 21.2672 26.9639
1 34.3418 10.6203 49.3665
1 21.9241 6.01641 37.7645
1 43.7018 24.9523 15.8251
1 46.9092 6.64577 19.8893
1 15.9001 48.5655 23.6563
1 5.49656 22.5816 15.9218
1 30.0801 49.2486 39.8901
1 9.55491 13.0761 8.12937
1 22.899 22.8003 28.4826
1 18.1241 15.8497 3.56989
1 37.3763 44.9393 4.46458
1 10.6551 19.003 20.455
1 20.1352 9.44944 15.4643
1 6.80268 7.85626 8.76996
1 8.13596 49.2221 29.9084
1 25.3128 10.4614 16.1614
1 46.7784 11.3427 12.7746
1 35.4014 30.5393 20.411
1 -0.0317129 6.55512 22.5568
1 13.9928 24.8604 2.68325
1 33.1664 22.1589 16.1296
1 22.6454 8.81536 17.7608
1 20.4813 20.0291 36.4372
1 4.22269 24.7579 18.5365
1 35.6695 42.6418 45.1233
1 18.7353 45.0838 45.7965
1 2.47213 32.7085 23.3153
1 33.7347 38.3414 6.20533
1 10.1741 30.3392 1.52507
1 37.2938 11.534 21.9893
1 8.43702 48.7412 18.9558
1 26.2151 25.0921 42.7696
1 38.2776 49.4395 18.0214
1 24.8357 39.6371 8.31031
1 18.7623 22.6096 47.9571
1 35.1326 27.6607 12.2777
1 46.9602 16.4573 22.0983
1 9.84549 4.28689 25.7518
1 1.75136 31.8305 17.6808
1 11.3661 32.0338 5.34213
1 46.187 29.2405 42.0005
1 28.9546 44.6295 31.5069
1 34.5875 15.9264 38.3503
1 36.6352 40.7026 31.7773
1 34.1452 24.5812 22.7734
1 9.73955 43.642 4.16032
1 41.1357 29.8685 5.84194
1 29.8716 38.3889 39.0513
1 48.5655 21.4967 33.9357
1 8.73496 42.3882 41.6025
1 24.2089 22.5884 13.0403
1 16.0932 1.62086 10.8248
1 23.9404 14.875 37.8265
1 42.5646 0.922665 12.0266
1 43.0727 8.74266 9.00246
1 14.6918 48.2378 16.7498
1 12.3424 7.73067 5.22448
1 43.0838 9.76336 39.4348
1 5.76001 16.0753 39.9182
1 20.8774 3.49578 41.454
1 27.4268 42.6375 20.7285
1 40.2929 29.1343 39.9626
1 22.6077 36.2659 13.0243
1 26.4679 17.5999 8.13494
1 40.2956 15.0674 44.3266
1 37.3319 27.4646 10.2041
1 24.5663 31.7073 4.09488
1 46.2305 19.4504 2.14406
1 41.6354 8.73507 41.5142
1 45.2459 39.0011 24.6381
1 30.2025 23.7824 48.5525
1 18.3423 21.2752 1.69839
1 13.216 47.183 3.3237
1 8.88667 32.4982 35.5892
1 4.76766 32.7563 33.6618
1 24.5667 29.6362 14.5342
1 30.003 23.6802 33.9969
1 28.2523 26.7932 23.3447
1 47.9193 11.9961 1.88406
1 30.7449 32.9278 48.2203
1 1.52839 36.1824 40.5704
1 3.37734 39.9514 22.0129
1 15.0031 12.9133 3.62804
1 9.6266 7.27828 37.7129
1 45.9108 31.3833 27.9275
1 21.9964 15.1946 1.42505
1 8.16857 22.5829 7.02309
1 21.5648 45.1056 22.6979
1 21.0411 11.9729 33.6896
1 33.2409 30.6002 37.3236
1 0.868835 47.0318 49.3443
1 22.9146 31.709 18.5388
1 13.5731 40.3281 28.1365
1 48.1277 27.251 43.9882
1 32.3197 39.2608 25.3431
1 48.1425 35.5845 28.2598
1 38.4328 32.0491 25.2416
1 36.3648 32.7766 45.1432
1 37.2071 8.84418 36.3434
1 28.112 37.7473 43.3099
1 49.5949 17.9515 4.70167
1 30.0124 36.3193 34.5557
1 23.9219 7.70344 31.89
1 3.63566 0.417663 46.968
1 12.9288 4.6496 15.2971
1 45.3308 35.1705 6.17171
1 3.56518 3.17656 4.29415
1 30.8684 1.75184 1.27559
1 4.76678 49.6059 36.5126
1 44.5186 20.3597 44.0314
1 41.496 26.4696 5.08112
1 29.2715 19.098 1.77862
1 11.6745 4.10193 4.72477
1 39.0154 31.5155 35.6366
1 25.4421 27.6214 49.3259
1 28.705 40.4185 46.1224
1 11.6314 14.3556 29.5307
1 14.4654 28.2695 13.633
1 36.4928 38.6866 13.7571
1 48.4628 29.5282 49.2358
1 19.3651 28.8651 39.4917
1 14.4321 46.4279 0.887238
1 9.77513 24.1777 31.8702
1 1.10118 27.2158 4.15234
1 3.18454 26.7256 47.1037
1 44.2839 14.8938 32.6888
1 26.0046 25.7762 13.7229
1 31.978 21.3008 30.1453
1 2.92083 36.4204 32.5907
1 17.8539 24.8888 9.72107
1 16.5097 41.7387 30.7897
1 38.3791 45.0485 29.629
1 34.6215 37.1799 46.0011
1 20.07 34.7639 14.151
1 21.7248 21.5706 30.867
1 36.9128 8.02352 23.8362
1 21.7484 43.0315 14.2043
1 14.7224 26.6635 45.3102
1 45.4425 20.4092 41.5143
1 38.8681 35.2649 6.69895
1 16.8104 17.9636 5.36686
1 21.1053 25.4369 4.72407
1 12.6806 37.9187 1.91794
1 32.6034 19.1149 18.896
1 9.16737 22.8924 0.888344
1 49.4255 21.5713 10.8934
1 11.7268 29.5296 3.84072
1 46.8456 30.0591 47.1709
1 12.9028 13.4047 5.19158
1 7.38724 33.1903 14.1359
1 15.7541 12.7259 1.12692
1 36.4753 31.1857 4.25337
1 1.15078 45.568 30.246
1 31.1032 47.7618 10.1636
1 5.80937 36.8178 42.5779
1 22.7573 6.01059 18.3587
1 39.7252 36.9417 15.3843
1 25.3354 31.3312 36.904
1 25.6553 15.133 32.0837
1 10.6927 8.59443 35.442
1 38.3954 48.4257 23.4159
1 2.82464 37.7577 15.527
1 1.70469 32.9205 29.1225
1 18.1557 28.8415 25.8833
1 48.1505 35.828 23.1683
1 0.53656 41.9387 8.33013
1 8.36404 45.8466 38.0704
1 34.0072 21.9081 24.9723
1 11.2195 45.9647 15.7669
1 48.441 9.19383 46.944
1 6.94047 9.92489 3.37951
1 15.8679 19.584 3.30316
1 45.4662 5.97773 47.4518
1 17.6533 0.97057 29.1572
1 15.2067 17.4079 47.6107
1 34.4393 5.64201 26.144
1 22.5977 41.7141 42.7933
1 23.3032 6.15855 21.1593
1 2.41327 47.0045 5.82118
1 1.0019 43.5774 33.9692
1 3.46437 9.27388 6.97979
1 15.8443 30.9335 46.7167
1 19.2121 48.2616 19.8601
1 8.23953 34.8933 8.43568
1 1.11469 17.669 24.5253
1 10.0526 11.6952 24.0914
1 1.05702 20.7491 23.6473
1 1.62008 21.5082 38.3888
1 35.5556 27.0002 16.8197
1 14.8867 48.4463 4.98101
1 13.6597 25.6859 29.6085
1 15.1785 32.9333 22.7678
1 7.70588 23.2896 33.6498
1 16.0386 10.0054 47.4133
1 9.75099 11.0597 14.8324
1 30.2877 35.3524 22.4237
1 20.5454 19.8714 1.48688
1 30.9429 44.0906 34.016
1 45.4363 0.257483 47.0427
1 11.3138 38.1403 16.2043
1 35.2224 32.8262 37.9863
1 49.5457 4.48807 45.6195
1 9.94862 35.8072 21.5629
1 10.965 46.8468 38.4119
1 19.9691 19.3034 30.6905
1 48.5483 43.8867 47.9661
1 23.7592 34.3513 42.8137
1 18.8488 41.0443 12.4979
1 23.7597 47.2486 29.635
1 15.7811 26.3905 23.2148
1 25.6936 37.486 17.8725
1 7.31557 25.1792 35.5519
1 3.14634 47.9859 12.9054
1 42.2064 41.3288 9.83744
1 8.46662 13.8217 5.49734
1 14.6604 29.1058 7.3696
1 25.9944 39.9992 35.2244
1 8.8489 16.3611 5.12184
1 3.1216 19.5953 13.5287
1 47.6706 14.9301 0.992795
1 46.2412 38.5363 49.7092
1 48.5573 32.8629 5.88717
1 13.3279 6.66918 24.8497
1 37.6253 36.4732 11.7634
1 4.74816 29.2001 28.4842
1 10.6263 4.58443 44.7766
1 4.3959 4.55343 23.198
1 1.97889 45.7382 1.72189
1 39.4271 33.2526 48.7765
1 3.36319 23.3905 20.9159
1 35.2777 23.14 26.9485
1 18.962 13.8611 38.4707
1 7.86474 20.2367 43.468
1 14.6327 43.2217 46.7134
1 26.6601 43.0987 15.0884
1 21.0859 31.4224 26.1634
1 3.65602 6.96877 3.4746
1 22.8027 26.7708 30.5582
1 6.21274 5.82427 15.3063
1 7.3506 11.321 0.697257
1 43.4243 36.4882 37.9116
1 34.403 17.0679 20.0048
1 26.476 6.92234 28.8718
1 18.1395 28.5869 36.0015
1 11.6094 38.329 24.0322
1 26.2753 11.8974 13.8606
1 5.89411 32.2398 31.1778
1 15.1479 24.0099 33.2939
1 43.6784 12.3571 37.7934
1 37.5304 1.12152 21.9153
1 47.618 43.2578 19.8305
1 33.2592 18.4338 30.95
1 41.4695 28.9786 24.6321
1 25.6302 14.385 35.3642
1 40.32 39.9885 34.7015
1 22.2408 46.3354 42.983
1 31.8258 0.548596 48.2728
1 1.36691 35.0364 5.22919
1 48.1538 28.3749 34.7299
1 44.1288 35.3441 13.0655
1 20.9132 1.28028 20.7251
1 39.0526 22.9885 37.0392
1 22.9392 2.22326 37.9204
1 15.8213 23.0324 10.5709
1 31.3262 16.1878 27.0132
1 14.1295 40.0831 13.7442
1 42.0301 35.7351 14.7216
1 15.6541 45.7685 20.3465
1 40.4345 21.2053 19.0658
1 23.6785 33.7753 16.9492
1 43.7029 27.3908 25.4299
1 36.9405 45.2577 20.0953
1 25.1536 26.1803 40.4555
1 8.20571 4.45064 7.32298
1 41.5478 0.730398 47.0292
1 35.7291 9.92241 6.12887
1 43.269 43.3543 12.6254
1 42.2062 21.2749 4.7559
1 46.073 28.4324 10.2961
1 42.0342 23.2194 13.6819
1 41.3016 12.9737 7.13859
1 16.3377 1.43487 22.8579
1 12.1068 31.8047 15.8606
1 14.8519 45.8239 47.1701
1 16.9277 9.30132 21.42
1 1.51135 44.6651 42.3566
1 25.1529 24.4881 9.67717
1 29.7846 24.2641 36.4528
1 47.2272 15.5125 17.0393
1 17.421 14.8255 18.5978
1 27.3655 39.569 9.2915
1 38.0254 4.65752 4.22853
1 41.6307 4.97824 9.06658
1 45.2235 24.7708 13.329
1 4.10291 36.1096 29.9397
1 14.3225 38.5737 44.955
1 25.5906 43.7109 43.053
1 29.2092 26.7388 11.1938
1 48.5217 37.6729 9.16725
1 8.17358 1.9397 45.6283
1 44.8451 17.5305 45.2832
1 7.45874 20.9176 49.5677
1 26.5027 29.4794 8.49965
1 49.7208 46.5327 7.80778
1 5.68034 24.3402 13.6086
1 6.19644 25.1829 -0.00165393
1 42.4077 38.9229 0.264603
1 38.0664 19.6931 32.017
1 0.650679 10.8708 6.47808
1 29.2869 17.0154 8.16402
1 43.0346 17.742 18.8285
1 10.2724 25.5159 39.9077
1 1.21231 22.9095 49.0851
1 43.7546 43.8424 2.37853
1 38.922 16.4943 14.4005
1 8.70659 11.0571 27.8962
1 32.9227 17.8117 41.7916
1 23.769 4.10975 40.7905
1 35.2611 15.0017 11.9099
1 48.7939 38.8959 35.395
1 27.9424 47.4448 41.205
1 19.2653 17.4382 44.7621
1 13.3566 1.76266 30.4258
1 8.50151 29.6604 47.4218
1 24.8773 23.0981 16.9971
1 45.9907 47.4362 8.74115
1 15.7875 14.6153 23.7068
1 10.7827 28.8521 8.3426
1 26.6115 22.9304 20.6804
1 25.6564 31.68 6.73938
1 15.791 37.995 41.478
1 29.9478 29.4919 37.6716
1 41.8201 33.671 23.8795
1 26.0042 45.8858 28.8467
1 7.59897 13.0466 18.3232
1 12.3411 23.2006 5.96218
1 29.073 11.8136 16.7799
1 49.0847 40.2901 12.1356
1 6.22706 3.53055 3.44788
1 36.4566 2.31874 32.5866
1 16.8993 31.224 25.0478
1 4.79393 21.2276 30.8541
1 39.1743 35.7133 38.8966
1 45.5199 31.5931 16.1905
1 32.0172 45.2431 6.44303
1 45.7689 48.1263 14.9937
1 49.4747 4.81592 4.5989
1 42.5268 28.1136 13.7302
1 22.7715 1.26774 0.448836
1 25.4591 21.3462 48.2258
1 39.8902 42.7564 3.26849
1 41.5682 42.6561 46.9209
1 34.7592 20.195 42.3359
1 9.59155 42.2913 35.2409
1 46.9108 1.6432 48.7181
1 15.348 42.7875 17.3131
1 40.7605 20.98 49.4624
1 35.5757 45.5357 42.9201
1 26.0137 35.0696 12.6821
1 36.4706 42.879 30.018
1 45.5352 31.9991 25.4155
1 1.95181 29.015 6.4617
1 45.9161 21.4782 8.31407
1 4.78988 18.1713 5.38034
1 15.1629 45.7465 7.89878
1 38.5841 34.852 24.9423
1 22.7426 29.9166 1.82117
1 24.0607 10.3279 30.6522
1 14.5804 24.7343 47.655
1 18.6308 34.9467 23.4707
1 32.82 4.26615 20.5248
1 35.2501 14.9091 21.744
1 0.960512 10.5955 26.0211
1 22.9268 7.2003 25.3817
1 13.758 28.6561 29.2071
1 17.0898 27.4335 14.1668
1 3.24675 47.1394 33.9089
1 6.48566 30.6633 39.7589
1 48.3846 47.2106 35.5939
1 25.3718 9.62497 28.5563
1 9.63099 4.17876 12.9088
1 16.2861 43.5151 9.23349
1 4.40302 32.5999 7.14063
1 46.1563 8.13109 23.3319
1 29.5826 13.1303 32.7155
1 8.20739 7.84229 4.14008
1 30.6672 46.4633 27.3178
1 6.30249 29.8567 30.7325
1 17.1212 42.9293 45.2609
1 47.5773 27.5237 21.8503
1 8.40935 4.17358 41.2848
1 47.8854 40.0953 3.158
1 25.4811 38.2697 48.5363
1 37.9002 21.1638 38.8968
1 28.4739 44.1541 1.85688
1 9.63145 5.13238 32.615
1 2.05895 2.28161 12.8316
1 42.1037 35.6371 42.7923
1 24.0714 10.2263 2.42685
1 24.7296 16.676 6.06389
1 6.75608 0.568446 6.04772
1 5.70786 42.6016 16.7311
1 31.3558 26.5205 36.9347
1 34.3497 22.8219 13.9641
1 10.2762 38.3993 43.4733
1 24.3076 18.85 17.9022
1 28.4364 21.4036 2.93049
1 5.84956 22.2675 21.9263
1 10.0858 3.52654 47.2111
1 17.2753 7.70661 47.9763
1 20.2536 43.9411 11.9121
1 38.2855 41.2012 49.1053
1 6.39049 27.5158 41.7905
1 45.0125 44.2238 16.7481
1 31.5382 45.4616 41.0511