4096
 Atoms. Timestep: 5800
1 2.44319 37.8288 35.7998
1 44.3785 13.4302 10.9535
1 40.3234 14.9377 29.8432
1 27.1346 33.462 9.21893
1 13.0315 46.6778 26.2929
1 18.0739 45.9479 46.6336
1 28.5641 47.0955 49.8706
1 30.8978 35.3305 14.2348
1 45.712 46.2197 33.7467
1 23.0539 6.16517 34.3858
1 30.0952 1.72978 5.24021
1 41.5285 40.5809 9.37943
1 15.9415 7.37971 15.7528
1 10.4158 39.2961 20.1606
1 13.8398 25.3751 6.37175
1 38.4574 1.83145 30.3332
1 40.4521 39.9705 45.2079
1 6.39683 23.2154 7.13846
1 25.3299 5.81475 32.7997
1 19.1995 9.6415 14.2297
1 33.892 47.0875 9.48824
1 6.65865 20.1113 0.64535
1 1.89429 32.0303 40.4618
1 16.2377 11.5647 20.4525
1 18.0833 4.91149 12.4127
1 37.4873 28.376 21.942
1 42.6407 2.14138 27.629
1 4.66811 13.9734 27.0212
1 3.51523 14.4005 22.6587
1 1.37387 5.21504 41.7346
1 32.0437 45.0158 42.5449
1 23.1112 0.755628 26.6233
1 32.5719 46.4062 22.4534
1 42.0134 33.9137 35.1377
1 27.1641 44.4559 49.8757
1 45.2666 29.0001 9.98756
1 19.707 2.53398 35.6236
1 17.1008 30.8678 47.7916
1 42.0897 26.3999 16.5476
1 49.898 26.7264 25.278
1 37.3944 44.7484 32.0214
1 17.4269 10.7229 16.1746
1 3.0647 32.9423 32.5799
1 43.4328 48.6133 45.0605
1 14.516 9.23222 0.885141
1 23.8031 23.317 32.8154
1 34.5616 32.8004 29.6229
1 7.62696 35.4061 19.8798
1 42.7019 12.8706 41.3227
1 19.2114 33.3111 15.3792
1 10.8873 6.96773 28.4159
1 17.9934 1.79035 17.1554
1 14.0766 18.6917 29.1762
1 21.6283 23.9691 1.44471
1 34.6286 19.7201 48.2757
1 31.5522 33.5763 33.9689
1 32.9962 34.0214 6.67763
1 45.7368 8.09877 3.80382
1 40.5715 44.6244 38.1441
1 25.8722 22.6897 3.77403
1 2.08396 32.6656 29.9913
1 12.5442 38.1786 35.4912
1 41.4979 44.6926 45.3649
1 49.1052 13.6418 43.6941
1 43.2893 43.6238 48.661
1 3.79826 13.0522 49.7447
1 32.0188 18.0615 26.708
1 10.81 11.288 4.80293
1 27.9874 7.47756 43.3316
1 35.1543 17.376 1.27841
1 38.15 7.4243 31.726
1 36.63 20.1775 9.91392
1 18.9627 40.6832 16.8923
1 29.8929 43.2603 5.20416
1 31.1297 49.6693 46.5329
1 45.0822 14.3373 36.4978
1 26.7522 22.5093 40.6546
1 23.056 42.9125 37.5711
1 32.2833 33.4823 15.8837
1 2.01123 28.7474 13.9795
1 18.6856 27.9551 39.6682
1 32.3825 44.3919 45.7709
1 24.1638 34.4323 7.65865
1 49.5061 1.88794 15.5192
1 41.194 11.4165 27.0204
1 26.6711 5.03397 40.2679
1 33.3973 47.7994 6.78802
1 5.7307 39.2657 3.69973
1 32.8818 24.0038 33.9014
1 31.1574 3.3192 41.8381
1 20.2719 9.93508 28.1511
1 21.3071 23.1784 19.01
1 44.5551 1.80835 37.5899
1 1.77816 3.84507 15.0819
1 25.6593 35.3978 30.8229
1 49.1444 -0.154212 26.9024
1 10.1673 5.3363 39.3391
1 40.4749 10.2611 3.63315
1 19.8568 14.8688 46.0211
1 5.96714 37.6098 43.8086
1 38.8777 17.944 39.0439
1 19.4197 18.6907 41.4768
1 17.1157 23.2982 7.634
1 18.3481 42.0243 14.7798
1 12.7683 43.316 18.539
1 43.4439 38.0145 42.788
1 23.8583 20.8019 11.1675
1 17.9169 6.29141 8.4722
1 2.06539 17.3389 48.3107
1 8.19546 9.06625 31.2678
1 27.2691 30.9259 21.0011
1 16.29 28.2793 22.2399
1 32.778 28.833 6.22927
1 0.820968 35.1659 45.8868
1 22.3228 20.0901 4.51374
1 36.3037 25.9907 10.7042
1 23.4849 33.1685 43.2708
1 39.7246 5.79701 42.9571
1 42.6261 21.0293 28.3778
1 16.9648 7.81339 46.9384
1 13.283 18.8911 2.02774
1 33.3651 12.6723 45.8709
1 41.9038 20.63 48.8901
1 18.2735 32.6296 3.02694
1 43.9967 1.85181 48.2204
1 27.1449 11.0087 19.7589
1 36.2586 34.2914 37.4219
1 36.8027 38.393 18.0665
1 15.381 6.29535 18.0179
1 5.00998 5.47202 3.88226
1 19.5891 29.4396 27.2581
1 39.5566 18.5987 25.8348
1 15.5869 45.9025 42.2415
1 21.5713 38.434 4.3668
1 45.519 49.2579 43.5198
1 9.41406 38.2784 15.7222
1 38.5027 0.905615 21.8274
1 17.1609 44.2947 34.6177
1 36.7215 42.9683 29.9353
1 34.8547 40.8423 14.7735
1 15.6191 6.67392 0.498562
1 43.4294 43.8881 17.3373
1 14.0633 20.0847 42.5368
1 31.0818 43.2684 13.093
1 48.9814 31.6101 30.2686
1 12.1735 5.99459 31.7028
1 10.3759 18.1006 1.65005
1 40.0268 33.2533 45.6395
1 24.965 17.3438 41.4859
1 39.1938 34.3218 7.99264
1 30.7623 20.7464 41.2544
1 45.7558 3.66452 12.7779
1 16.7035 7.02596 24.3614
1 0.59286 6.3061 34.3558
1 5.31539 11.0931 6.98589
1 42.1067 23.8746 27.9845
1 30.7048 13.9961 28.7341
1 28.4595 44.8176 22.7592
1 32.0577 34.6063 40.7695
1 47.0744 31.1755 43.8958
1 42.2943 14.0384 44.1783
1 17.1628 28.7091 13.9091
1 3.16251 20.5487 36.9322
1 29.1932 16.7929 6.86134
1 28.5965 44.7301 16.403
1 46.5447 33.8293 24.8078
1 35.1584 7.34121 4.45628
1 41.9782 38.0398 34.7594
1 38.7083 48.0729 7.06765
1 16.4944 22.8662 45.3456
1 0.971671 19.9076 23.0279
1 32.9258 28.033 30.7034
1 24.1998 6.65733 23.4264
1 37.2804 29.586 47.187
1 28.0379 39.2081 12.768
1 17.8548 39.0578 49.7781
1 21.773 15.1837 6.01478
1 26.8593 13.8249 33.6808
1 12.2644 7.88175 13.8203
1 8.26453 36.0322 40.1231
1 3.29564 22.5486 32.6972
1 21.6968 19.8114 18.851
1 43.3743 1.62035 22.4527
1 12.3485 25.0438 43.9243
1 5.08409 9.47861 47.2424
1 32.8075 21.1044 23.8378
1 39.2226 6.77514 38.533
1 6.56383 31.936 16.7216
1 42.9183 13.3237 37.7297
1 11.6648 13.0827 9.3261
1 40.9303 26.2063 30.4396
1 15.5175 37.1125 39.5985
1 43.4883 19.4883 37.4371
1 7.4646 9.48805 44.6967
1 45.2213 0.0354625 25.1179
1 35.2296 7.04438 48.1022
1 10.8495 15.4059 7.98816
1 34.7395 28.231 47.7304
1 41.2703 18.5401 23.1342
1 18.0492 10.9843 25.6683
1 30.4925 4.14719 6.52295
1 1.74302 11.5047 19.4347
1 9.39216 12.3207 10.5985
1 13.759 6.25264 23.7667
1 33.5067 1.59472 42.5897
1 9.9419 34.5188 16.4458
1 12.4737 16.0446 47.7347
1 35.9264 23.3426 14.148
1 22.6432 46.8872 15.3144
1 40.5514 40.1681 17.8998
1 46.6463 7.2408 30.829
1 37.245 44.0878 45.2787
1 39.2208 15.4011 39.0687
1 6.93706 7.24964 46.5257
1 9.90955 32.3214 14.6666
1 47.6066 10.9295 39.4794
1 10.8881 18.8405 20.2548
1 28.9272 49.6728 16.5425
1 27.1798 3.50931 11.7812
1 43.2035 44.4352 42.1056
1 33.9616 37.8764 21.7684
1 9.83874 44.8437 6.76962
1 26.9752 48.118 14.9576
1 29.5433 23.0752 41.4815
1 20.7715 21.018 16.3681
1 18.4705 22.5584 49.4886
1 30.948 28.0069 41.397
1 2.05532 14.1254 47.7153
1 26.9924 12.3869 14.6497
1 25.5885 13.1714 47.6336
1 37.3654 31.3603 11.9799
1 39.661 28.3131 2.41752
1 21.1102 18.7052 14.9237
1 30.2849 48.8929 10.1305
1 20.8878 22.3922 33.2917
1 46.2765 43.8755 21.906
1 15.0671 3.70908 22.6707
1 15.487 12.4724 45.8376
1 1.41974 23.9481 3.82269
1 41.8813 31.7226 39.7745
1 41.229 9.40893 15.2594
1 27.2757 3.75339 32.7844
1 31.2145 16.5358 37.1231
1 48.4611 12.4867 10.1834
1 49.786 11.7975 6.51361
1 10.2274 31.9198 21.5478
1 15.6396 34.2631 23.6199
1 15.7285 38.4224 44.689
1 31.5234 11.458 7.66213
1 37.142 7.26365 14.6498
1 28.3273 42.7055 45.4241
1 17.2375 24.8623 0.642792
1 46.0964 6.52717 20.8291
1 24.5501 20.3642 31.8397
1 40.682 17.9008 20.3693
1 10.0915 43.56 1.33526
1 6.61195 28.4493 32.2407
1 9.03819 20.1587 4.58784
1 34.0938 12.7774 5.20323
1 36.7238 31.597 37.7529
1 43.0677 4.47738 13.5822
1 11.431 13.6388 28.4364
1 41.3461 5.0128 34.0536
1 41.5116 18.7495 39.2316
1 14.2865 46.7729 19.8456
1 0.674695 49.595 29.3429
1 37.1123 13.595 2.35077
1 20.8486 42.6152 41.0809
1 6.88356 40.4526 17.684
1 48.1656 26.3512 42.9902
1 3.67022 48.765 24.8529
1 28.4827 17.392 19.3394
1 49.2023 23.5291 15.2065
1 22.2297 25.2539 38.8625
1 11.235 35.0092 0.492198
1 44.438 28.5784 39.097
1 45.949 44.8293 41.7946
1 34.4248 12.4431 19.4828
1 32.9659 42.5108 7.91061
1 49.5199 40.7599 43.6496
1 31.602 18.0324 44.7844
1 2.65857 19.8625 34.085
1 32.083 26.3955 42.994
1 17.9402 26.9875 42.1189
1 25.142 2.34475 46.466
1 17.845 12.7261 37.617
1 1.49024 19.6862 46.826
1 3.9651 9.46526 19.3496
1 0.863559 24.2973 25.0485
1 30.0858 31.6096 12.0055
1 49.3103 20.7098 0.828933
1 4.22413 26.4787 49.0307
1 47.801 22.0316 43.9665
1 3.72004 42.135 45.1077
1 6.99927 18.829 47.9289
1 31.0365 37.0331 36.887
1 0.847934 19.5037 18.1625
1 16.8478 15.0895 39.0975
1 33.1889 25.3202 31.4584
1 24.9289 10.9178 31.0145
1 32.1227 39.4096 20.796
1 0.450375 11.658 21.8941
1 27.3357 0.971482 12.4398
1 30.1811 0.0804489 31.6979
1 6.13351 7.93596 29.5057
1 31.6651 6.91498 18.5181
1 11.6581 0.797103 6.50691
1 1.98648 1.82051 11.7137
1 15.3783 16.6354 13.6728
1 14.7427 30.1417 41.282
1 24.0209 32.1836 29.0541
1 33.8069 3.7006 33.7384
1 13.4241 43.1635 35.5567
1 40.3423 2.6693 17.6077
1 42.7638 37.9837 31.8037
1 27.6612 33.0311 49.2246
1 3.24298 1.61362 42.8975
1 12.3063 16.061 17.1785
1 3.44351 18.8615 30.9441
1 10.4624 7.3465 0.628942
1 37.6701 19.4093 15.9865
1 23.7526 28.5418 0.213272
1 43.5762 32.721 0.997034
1 12.723 47.0593 31.4571
1 16.6058 41.7357 11.1888
1 2.62873 20.967 42.7346
1 42.1995 34.6909 39.2484
1 43.0662 7.48497 44.5069
1 3.68378 3.1043 23.3444
1 42.0745 2.38443 33.9277
1 37.4187 23.8295 16.6519
1 23.226 45.0786 4.08318
1 21.8128 37.5279 20.8369
1 42.9724 8.36443 17.5118
1 46.2615 6.35049 15.8678
1 40.6661 33.8604 21.9024
1 28.2473 28.708 33.5591
1 40.9973 42.1032 4.70847
1 10.4768 6.56804 19.8202
1 18.6421 20.329 30.0357
1 30.1784 16.3182 20.9601
1 34.6475 6.16049 37.6688
1 7.69313 26.7832 41.7289
1 44.9811 6.51447 26.4436
1 2.03272 13.8247 42.6329
1 8.35936 29.1754 13.3099
1 42.13 42.3648 37.1775
1 35.1923 14.5829 40.1295
1 15.0916 40.2998 29.7901
1 31.3741 47.8371 48.6105
1 13.4432 2.66861 8.77538
1 47.8423 2.87131 0.245948
1 47.8963 31.9017 9.5196
1 15.1463 25.5368 48.7958
1 3.21994 33.7666 42.2831
1 35.6775 39.0003 37.9988
1 13.8927 12.8931 20.072
1 41.2634 6.77226 46.6521
1 46.1422 40.7454 20.9081
1 27.7883 36.6253 17.4822
1 36.6444 41.8348 10.1271
1 44.5294 46.4209 31.3406
1 32.3325 12.7588 34.9761
1 13.525 29.17 45.8687
1 32.6836 31.8628 28.1788
1 18.5936 31.4025 43.7567
1 15.6149 29.2044 24.7689
1 1.1609 15.768 18.4631
1 17.9393 31.1242 9.34362
1 7.38849 4.90118 22.0212
1 5.58057 1.56763 15.4785
1 44.1534 4.68521 1.64258
1 38.4791 14.8713 6.52171
1 27.1979 13.1238 10.9499
1 36.7155 0.287148 31.1615
1 28.698 0.524387 36.3049
1 7.94253 36.1205 11.5479
1 43.1 29.7495 13.9782
1 20.1917 12.0797 46.2878
1 12.0603 3.45616 18.513
1 12.6282 22.997 32.395
1 49.5839 36.5597 41.8358
1 0.229492 30.5603 41.4548
1 14.498 10.4174 7.41208
1 30.0539 9.009 44.2444
1 6.11315 45.2012 45.657
1 18.2885 25.1234 25.5402
1 28.9289 15.5937 11.129
1 18.3694 15.9407 30.7857
1 39.0674 43.2989 11.9626
1 21.6511 33.0499 37.1537
1 12.8936 13.8457 11.7242
1 35.5828 35.1712 33.0181
1 49.6441 31.9987 24.5519
1 37.4515 27.5875 3.66722
1 32.3213 14.4709 30.9286
1 18.9289 40.0264 30.5381
1 10.3282 24.3571 4.3584
1 46.1738 24.1268 0.229458
1 8.82987 14.4054 47.7655
1 41.3827 39.6305 42.5831
1 19.3245 14.5748 28.4155
1 34.9271 12.4865 11.0034
1 16.255 16.5029 7.44785
1 44.941 42.1513 7.45664
1 4.94971 11.1547 41.7782
1 15.0208 2.52661 25.3325
1 47.8064 49.8638 3.82242
1 21.1071 48.587 13.8091
1 4.22434 28.8739 30.7841
1 5.03613 34.1854 30.8213
1 2.25853 40.5382 43.2237
1 15.975 32.3234 10.9628
1 26.872 43.4393 41.7149
1 36.9983 17.7022 27.5342
1 21.3876 10.5224 0.739975
1 15.8311 31.2728 28.2143
1 17.5391 26.3112 37.7632
1 0.850232 36.8361 3.64219
1 7.26108 26.7993 12.732
1 39.675 45.5625 28.653
1 37.5432 48.9015 37.6538
1 23.7395 10.7375 24.1845
1 49.1584 7.89137 36.4978
1 21.9059 29.1925 37.5628
1 28.3522 48.1747 18.8223
1 9.86517 12.923 33.4874
1 24.2152 20.7866 29.078
1 2.32875 40.8253 20.0115
1 49.4466 27.0659 32.2289
1 27.4351 40.1271 27.4427
1 43.1918 47.6947 36.6584
1 33.9934 3.45121 36.5378
1 37.9136 4.19927 7.06882
1 32.696 26.1305 4.54213
1 31.3134 4.01643 14.0652
1 14.1943 13.07 5.67545
1 32.7146 35.9383 8.64986
1 34.4049 15.1281 20.6705
1 46.1496 18.559 28.2484
1 15.9722 33.5301 29.5972
1 33.1901 19.501 16.4333
1 45.2882 47.6989 47.1851
1 12.7692 23.2579 1.15738
1 43.8247 44.355 23.0943
1 24.4497 9.39688 12.0538
1 44.7896 39.0069 11.7275
1 42.1899 37.6852 22.8015
1 27.2245 6.40853 7.93448
1 30.5584 22.0748 24.5681
1 23.8009 47.1436 35.7171
1 47.9712 40.2716 30.1924
1 19.0176 44.8841 30.1849
1 17.3387 15.6318 46.1388
1 3.37865 45.2239 30.3447
1 11.717 1.95006 13.8471
1 15.9257 32.0635 20.053
1 12.8812 46.9229 9.02414
1 48.9659 27.05 27.9351
1 28.7559 28.2923 17.361
1 41.2522 42.5674 42.8265
1 43.4653 24.8954 30.7304
1 47.291 17.381 22.3352
1 7.07513 13.3696 38.766
1 18.0175 48.0324 15.9158
1 35.5141 37.7699 31.8709
1 39.0073 9.12658 25.709
1 6.14163 43.3012 4.85551
1 46.8064 7.13384 49.1033
1 40.3253 34.9169 48.0132
1 47.9601 44.5475 33.2522
1 32.5068 47.2019 3.96231
1 10.335 28.396 5.29458
1 33.7253 21.5402 13.0741
1 27.2924 43.3052 20.1198
1 0.852725 23.3123 1.18654
1 16.2449 41.4515 41.4295
1 5.85524 6.99649 18.4392
1 17.135 41.4553 25.7115
1 47.8485 5.72774 33.219
1 40.7463 14.3011 36.8381
1 47.1145 13.6526 18.7176
1 44.4834 0.614134 17.9085
1 7.90406 0.313403 45.2716
1 8.65009 20.0422 36.7808
1 26.7929 3.0283 22.3708
1 4.24927 43.6266 33.2546
1 14.3788 8.79159 5.06341
1 40.1299 7.30455 10.8185
1 36.4186 37.3047 29.5592
1 16.6779 10.2457 23.5461
1 5.68416 18.5802 42.3328
1 6.5875 30.9098 12.3124
1 15.5926 18.164 9.55124
1 4.78496 28.6469 21.7006
1 14.1734 12.7096 25.1062
1 2.48527 9.01387 47.9574
1 46.2601 37.6985 34.4077
1 49.2604 11.0957 17.45
1 42.4709 28.0817 41.0775
1 43.8462 6.04987 23.8868
1 4.04149 34.788 9.15506
1 13.9509 22.7426 15.1866
1 18.3376 42.2224 46.7816
1 33.8112 28.7759 20.0021
1 2.97652 31.3232 48.8412
1 48.8055 30.5715 2.24683
1 8.95877 5.22624 47.8611
1 8.64613 45.5479 2.68351
1 9.15625 49.571 32.9411
1 22.8376 48.797 10.2516
1 17.1497 48.5839 44.9508
1 41.7731 16.9897 3.91804
1 3.67737 38.0753 25.9604
1 38.0495 13.941 33.9522
1 0.166916 19.8515 28.2495
1 7.20387 30.9774 24.9468
1 24.1664 35.2044 17.6907
1 9.42217 4.76194 45.2826
1 49.1025 6.84255 41.067
1 39.3906 17.6737 2.1575
1 25.6876 48.1463 29.0429
1 20.9722 24.3797 25.6125
1 29.3108 31.9683 39.9128
1 44.7426 3.79799 26.8116
1 1.00607 38.469 8.19203
1 19.7829 30.6409 2.13077
1 5.74298 10.9125 31.7722
1 4.48106 20.684 4.08932
1 43.0809 23.8237 16.0035
1 45.1868 49.1497 36.4375
1 16.2091 34.413 6.40363
1 11.8726 31.4373 28.4019
1 11.0727 46.8948 47.9399
1 24.789 37.0411 2.42811
1 24.5302 39.8431 2.25545
1 35.5992 3.99002 16.0854
1 39.2083 41.5267 27.2205
1 20.3548 4.34366 22.6244
1 12.3713 6.96359 38.2606
1 35.4975 5.12457 32.0522
1 35.1993 14.0214 29.908
1 24.4114 46.2285 43.9862
1 49.7015 39.8225 16.5791
1 4.94504 9.3488 26.7616
1 22.9213 19.5893 7.30723
1 35.9237 35.9966 16.928
1 6.6577 8.02027 38.0048
1 15.8511 28.258 34.4025
1 6.39636 42.8154 26.4069
1 27.1856 18.7372 28.2042
1 25.5106 8.09447 31.4513
1 5.25699 24.3434 0.470112
1 46.6804 40.1217 3.5064
1 9.28623 8.77862 20.1679
1 49.0775 2.7168 3.92538
1 15.8837 44.5575 11.413
1 19.3473 9.60804 4.53762
1 3.4006 33.8025 15.7999
1 41.347 24.2051 45.2888
1 43.9841 2.0513 1.05294
1 4.08947 20.1652 1.40782
1 45.7149 32.375 38.1086
1 33.8675 21.1969 29.3545
1 44.4512 36.8342 36.2601
1 4.69915 30.8314 0.857596
1 11.4739 18.9517 7.81867
1 14.76 47.8557 43.6834
1 37.8821 48.9882 40.5142
1 24.7933 4.65098 11.43
1 42.1587 3.42269 36.9012
1 37.4178 13.922 38.4353
1 9.46793 14.4361 35.8692
1 25.3608 18.8591 24.0382
1 3.99257 21.2602 30.0954
1 23.8838 35.8499 24.0454
1 10.2586 13.6878 38.5464
1 12.2194 33.2618 4.59284
1 11.9988 38.1351 12.5495
1 3.99858 43.1921 38.993
1 42.4716 46.1192 12.4892
1 30.7057 9.23478 0.0207605
1 22.6045 2.50935 47.0805
1 4.55695 36.8273 31.1737
1 25.0033 6.81084 13.2912
1 34.7906 5.8844 8.98139
1 3.04632 41.1755 40.6144
1 22.9702 45.0359 29.6812
1 29.5574 19.7566 6.74101
1 29.2213 6.35897 30.1225
1 44.0459 13.5424 5.99034
1 47.129 16.362 18.213
1 12.9787 21.9029 9.89428
1 24.0603 39.4902 30.8712
1 32.3984 38.2363 27.953
1 12.5132 46.0799 13.1119
1 47.2107 9.31131 11.1499
1 8.31477 37.4481 23.6456
1 15.057 43.1347 29.6146
1 8.94516 13.0134 19.3008
1 43.4515 33.1598 11.2222
1 10.0143 15.4724 18.1212
1 13.8633 27.6878 20.6547
1 5.60715 4.10945 39.7508
1 10.7626 28.2786 14.8236
1 45.4712 8.98152 16.7156
1 36.1241 31.8867 24.001
1 0.762664 44.1941 23.7433
1 45.7662 45.3791 45.8821
1 31.2686 4.175 33.5269
1 4.84089 16.9327 47.7109
1 37.0072 34.346 24.8772
1 14.015 8.61966 9.32826
1 46.2196 16.382 8.03176
1 10.4371 40.5779 47.55
1 27.1114 31.2012 17.4103
1 37.8316 6.50066 23.138
1 9.33883 7.46931 41.2322
1 49.4457 5.06727 30.8039
1 22.2162 25.7351 28.8613
1 39.4262 46.5388 11.7798
1 27.6927 6.64526 17.7376
1 15.7519 42.9743 45.8236
1 34.8385 3.97152 29.5251
1 19.7343 45.1327 37.8976
1 3.45834 6.14494 40.2226
1 24.053 21.1075 41.1617
1 7.79268 17.3421 36.6258
1 49.3961 28.3937 3.82186
1 38.3579 10.751 1.39716
1 40.6797 49.6907 45.5464
1 6.47847 11.9669 34.6062
1 24.8044 16.2377 45.7643
1 16.9774 46.0116 19.6389
1 45.3124 37.2036 2.75641
1 45.7196 43.1627 37.9647
1 24.4298 25.8532 16.9832
1 26.8555 45.5063 38.9909
1 11.1898 32.5864 19.0406
1 19.7622 34.7984 37.9689
1 2.61921 48.2496 2.38005
1 9.62078 26.2327 0.130477
1 28.7308 6.86793 40.8515
1 1.96295 16.1914 41.2093
1 8.92122 0.4073 11.3951
1 38.3467 6.24895 2.51732
1 38.3313 31.2004 33.586
1 11.42 49.4276 42.0839
1 45.0234 16.773 20.042
1 14.938 33.3211 8.74501
1 30.0344 10.9165 2.11642
1 41.9128 9.42236 0.996054
1 48.672 19.6064 15.9819
1 31.6185 24.1546 39.5345
1 31.3483 45.0686 38.7261
1 41.598 12.7999 21.2239
1 11.9182 41.1025 30.5275
1 5.55091 16.3411 22.678
1 6.89423 44.4747 33.6274
1 22.8162 26.236 20.6961
1 46.3989 36.2776 21.3501
1 18.7815 13.5405 3.17571
1 6.62897 24.9086 33.7549
1 25.6373 8.54805 44.2679
1 4.76745 26.7292 25.733
1 26.9421 46.8236 26.9583
1 24.0319 24.0991 24.0094
1 11.8396 36.4271 8.09012
1 22.8099 7.35072 36.8848
1 39.1123 29.8255 42.787
1 19.0154 44.59 44.5906
1 28.3059 14.5629 30.3541
1 47.3721 15.1132 42.3102
1 24.8492 45.0714 48.406
1 10.7391 19.8506 38.7204
1 29.1281 36.1951 29.2834
1 18.0729 14.4034 33.1769
1 10.7945 28.0472 34.6706
1 28.822 25.2443 17.8221
1 3.96617 35.7995 18.8307
1 36.9648 45.1512 13.6297
1 44.1863 15.1783 40.0749
1 7.21884 26.0763 15.4767
1 37.4565 24.8202 4.64207
1 0.150936 17.2113 39.3412
1 1.41228 24.3029 13.0147
1 3.52828 24.9148 42.0232
1 8.66546 8.20421 48.8762
1 26.8854 0.552337 29.901
1 24.915 44.5309 1.96682
1 20.465 29.0361 23.0147
1 15.2795 48.0664 15.3382
1 32.914 29.8881 45.3293
1 10.0332 24.3835 38.9481
1 25.5101 39.6429 19.1659
1 5.03283 14.2662 33.8002
1 6.31578 42.3915 49.6265
1 0.432902 18.4158 9.33272
1 13.46 36.1999 18.8301
1 47.7566 26.5308 3.35785
1 10.5467 6.406 15.572
1 3.01628 2.58776 20.8213
1 0.0729041 10.1011 15.1956
1 35.3659 39.3602 9.69337
1 25.0789 37.8241 34.5895
1 22.541 26.9146 48.22
1 14.6902 49.3161 10.6915
1 25.9706 19.7677 3.88023
1 2.95949 36.2213 5.29337
1 48.7915 48.6218 24.4397
1 26.6158 18.8118 20.9179
1 5.39571 27.4051 10.9498
1 29.5247 35.6837 41.503
1 5.97163 38.958 15.7838
1 20.8502 26.1861 2.31706
1 3.0407 12.402 16.2509
1 45.5591 10.0275 26.269
1 21.236 40.6662 10.817
1 0.585369 48.4975 12.2544
1 47.1911 37.9005 44.8653
1 23.8452 15.1852 14.6512
1 49.5427 15.9812 10.3524
1 39.9254 26.6237 18.5273
1 42.2684 5.48166 43.2247
1 1.60405 11.8172 13.8437
1 3.61113 44.079 23.8919
1 9.03382 30.4314 42.8986
1 18.4326 39.5697 7.38124
1 20.0581 13.7068 34.6385
1 21.6961 3.84773 16.4434
1 2.85571 5.86223 35.8824
1 8.98201 37.5981 30.0513
1 34.196 1.93955 7.17262
1 8.83676 48.0063 13.3687
1 15.8553 4.08187 40.5062
1 11.7946 4.24014 41.3897
1 32.0959 12.4056 39.252
1 7.58906 19.4512 30.5481
1 4.69244 1.67594 1.89819
1 18.172 40.4241 38.2096
1 31.139 1.6253 37.2748
1 40.6348 1.22905 37.0266
1 1.09026 27.3716 39.4815
1 38.3204 46.1576 9.28734
1 30.9352 37.7949 33.8267
1 32.2043 18.2285 3.7469
1 49.203 40.1322 33.1588
1 42.5123 23.0143 37.3844
1 28.1053 21.9572 45.6142
1 47.0197 31.1179 24.6012
1 27.4597 27.7525 14.3217
1 4.10601 0.963702 17.5796
1 46.7131 8.96257 35.7888
1 40.6848 18.4266 34.3288
1 30.1902 37.8511 43.1947
1 21.5492 1.12947 16.9373
1 13.7878 24.2437 23.7536
1 37.1773 47.1813 20.5238
1 34.8035 3.84261 0.965014
1 8.10176 16.6879 16.7403
1 30.6994 31.8799 18.4895
1 9.86309 30.1419 1.49938
1 23.6517 45.1316 32.4308
1 19.7823 46.3043 11.5722
1 25.8164 9.9203 5.37818
1 25.9552 42.5714 3.3693
1 11.0037 24.6121 23.8528
1 14.5685 14.9256 49.6816
1 31.5612 10.0499 19.3975
1 37.7039 11.1366 37.4331
1 7.03023 7.69069 26.3811
1 40.847 36.3491 30.5754
1 12.1224 6.00141 3.10038
1 7.2156 43.3079 47.1145
1 49.1365 31.3913 34.9599
1 38.5222 18.3388 47.7184
1 5.14316 34.8943 2.19271
1 1.11676 24.8527 38.7205
1 22.6978 1.47458 4.28726
1 37.0586 42.9815 26.6131
1 37.7067 38.7541 7.3836
1 17.3918 32.1924 5.48658
1 8.16381 15.721 4.96337
1 33.5186 28.0272 8.57541
1 26.2868 28.3344 1.13416
1 24.0844 4.13632 30.6435
1 34.2139 22.5594 2.4139
1 13.4567 31.0145 3.67793
1 45.4624 27.1207 43.0491
1 21.5671 44.6061 18.4322
1 36.875 22.1722 5.83308
1 39.8418 0.418166 0.22725
1 0.716804 3.80865 10.4878
1 4.57742 44.252 0.703014
1 37.1775 29.2914 17.2985
1 31.9765 32.2141 22.9829
1 43.4897 21.7798 45.4974
1 1.24699 43.6503 41.9507
1 14.0622 8.61325 19.0284
1 46.9704 43.0328 24.4823
1 13.1553 21.8522 29.7539
1 36.7856 47.0511 17.607
1 18.4696 16.2437 21.8164
1 38.0416 38.623 13.3663
1 49.0099 16.8471 12.8763
1 14.2941 6.62127 13.5459
1 48.9926 3.53979 38.2351
1 43.2244 18.13 46.8767
1 30.2673 46.5023 24.5531
1 28.0565 12.6847 44.5315
1 21.1765 0.404639 46.099
1 46.4127 17.6648 43.4146
1 39.4121 16.9331 44.882
1 28.8665 18.9699 40.8326
1 21.8819 28.7046 8.34253
1 1.17427 29.2889 48.4602
1 15.0613 6.16375 9.13297
1 38.753 11.9749 28.5863
1 34.6776 38.2108 13.2598
1 28.8277 37.2125 0.328258
1 45.2763 47.6161 0.364863
1 9.20589 43.8079 39.0093
1 42.5467 27.3452 36.9812
1 7.98012 24.7731 20.9296
1 18.0247 8.22863 19.6129
1 6.56259 18.32 27.6606
1 0.643313 6.41926 2.78071
1 14.0698 36.5341 43.6557
1 43.5586 34.4442 36.9361
1 12.8501 9.72132 40.864
1 45.5521 23.133 36.8371
1 3.63081 15.9401 25.4229
1 37.8875 21.4429 40.6065
1 6.51111 0.41886 3.30462
1 14.4599 39.0876 6.18951
1 20.3066 11.9016 10.4028
1 9.89564 10.4165 44.9577
1 36.0611 49.4456 6.47333
1 43.3205 10.5701 48.7923
1 9.85982 31.47 24.7425
1 4.22992 43.2087 12.9525
1 40.3784 22.7771 47.628
1 7.70319 3.34376 15.3635
1 2.99506 49.721 20.9875
1 10.1479 25.3524 31.3176
1 30.8274 42.8495 48.9877
1 45.2064 10.1961 28.7612
1 32.3963 48.6128 32.6164
1 9.81322 23.3762 48.9904
1 41.7773 46.6882 43.9486
1 41.8638 43.4695 11.4675
1 0.131582 44.853 15.0354
1 6.92654 0.760632 27.7201
1 26.5593 37.9168 48.4164
1 3.3276 37.9114 13.387
1 15.1572 2.05933 32.0746
1 1.97949 45.243 39.2456
1 4.71245 15.0822 17.2356
1 20.6194 7.32724 15.1707
1 43.1736 0.451118 6.63281
1 23.1747 7.19634 15.4007
1 28.3687 10.6551 27.4197
1 28.0922 14.6398 40.6121
1 41.7458 -0.0617309 48.1271
1 15.1316 20.1954 36.5146
1 39.279 24.0326 30.062
1 42.2143 14.4159 2.11338
1 8.20023 28.0722 1.15828
1 40.0475 21.8224 31.4876
1 16.4805 14.0041 48.0916
1 48.7594 19.4092 40.4403
1 27.7646 11.8652 35.8836
1 1.94891 27.3091 0.188859
1 4.41957 37.4153 21.1637
1 24.1748 16.1569 18.4303
1 38.9003 9.0666 46.2876
1 47.5128 33.3911 35.8377
1 19.2411 16.895 15.0763
1 13.4479 4.66251 33.86
1 46.405 24.0266 32.9241
1 49.2597 44.4426 8.05804
1 11.467 42.1365 17.1484
1 46.4206 26.6772 16.8534
1 33.4742 28.0894 14.2187
1 27.9023 7.87332 27.8969
1 33.3438 34.1374 43.0561
1 3.43796 27.9255 44.7303
1 46.4212 48.8576 20.5451
1 46.0909 29.7361 41.6891
1 31.5123 33.0305 38.6491
1 4.89006 21.3939 20.7698
1 27.216 26.0938 20.2633
1 2.09367 26.347 11.6947
1 8.13542 12.9617 5.58187
1 28.615 27.1612 12.2394
1 31.9661 39.4524 41.6578
1 27.5415 13.3136 49.5066
1 1.08117 35.2252 29.8149
1 15.7568 2.82081 5.88346
1 31.0229 24.2538 23.0195
1 45.8825 46.0058 39.1693
1 46.4982 47.6215 23.8627
1 3.18229 38.1352 43.7652
1 3.64207 4.89963 17.0959
1 0.705375 33.4298 20.9293
1 26.9226 46.9754 22.3777
1 19.1703 26.4999 35.2928
1 34.5048 25.5714 42.0549
1 43.4309 34.8036 49.016
1 32.9266 1.81595 19.1587
1 47.6172 24.1529 35.5662
1 6.6954 20.8667 19.0617
1 10.4329 20.971 29.7952
1 41.8678 39.8411 3.61895
1 18.3041 7.22008 37.033
1 39.2717 31.0817 30.6514
1 18.2766 36.4286 36.3035
1 39.0309 21.1782 36.0762
1 8.76004 11.4944 37.4447
1 23.4673 15.6234 3.88686
1 36.7291 3.37892 27.1751
1 11.6884 28.8116 27.6479
1 -0.0130077 47.6256 42.1157
1 31.811 34.7017 36.3763
1 23.5214 36.8598 4.61298
1 27.427 20.3658 47.295
1 5.54197 45.9498 7.7557
1 48.3829 27.7116 40.7048
1 12.1188 46.732 23.5937
1 20.1565 34.0159 19.2645
1 13.7093 31.0885 24.425
1 19.2455 25.2518 10.5319
1 2.3035 28.382 25.1011
1 33.0135 47.8055 35.1422
1 20.3066 40.1261 40.2306
1 34.2932 18.4582 45.4587
1 32.4708 42.0857 15.6436
1 6.40504 12.5217 44.8263
1 43.4957 33.8016 32.5962
1 24.1599 29.6341 32.7657
1 2.77318 17.2455 33.8153
1 19.5306 49.4448 48.1514
1 39.7721 5.08671 16.8887
1 18.4573 27.0457 23.4719
1 19.7085 21.1539 4.85716
1 27.8197 16.2054 15.4049
1 35.7734 10.2799 13.3312
1 8.51542 5.80462 28.1126
1 17.6878 45.9698 5.0778
1 20.2956 30.604 29.4826
1 0.312996 35.621 27.284
1 13.3684 9.52554 44.668
1 28.2443 8.1956 32.0193
1 39.0468 25.5138 37.884
1 12.5389 6.0015 43.3116
1 12.8023 1.55766 45.2666
1 35.7268 45.3235 22.2312
1 5.29993 33.3502 21.7433
1 14.0392 4.74694 6.63495
1 12.7995 36.2037 33.4905
1 21.5708 41.9047 14.1301
1 35.2607 44.6234 19.6998
1 46.614 1.74187 47.9522
1 22.7646 39.1386 34.5236
1 21.0354 17.7102 21.9368
1 0.54019 17.6981 6.78692
1 10.2205 45.863 17.1045
1 2.88502 2.35466 32.0377
1 2.40242 32.1984 4.6005
1 3.05071 18.0137 9.55249
1 18.0795 13.3815 12.3713
1 44.9919 7.61888 11.1266
1 3.15275 26.448 30.0922
1 15.6599 29.8356 0.253979
1 10.051 6.8406 7.10278
1 46.5425 6.20771 13.0607
1 19.7981 36.3101 8.92666
1 5.82698 29.703 38.9463
1 14.6661 29.4636 18.7361
1 1.84039 0.781962 49.4417
1 12.899 37.0255 1.10308
1 20.3845 37.8679 -0.0168818
1 11.4533 20.7177 48.2807
1 12.2142 39.7185 27.6029
1 37.1676 43.9274 49.1755
1 24.8363 39.1719 41.2892
1 9.16145 8.01165 4.63896
1 9.47183 30.6188 6.55493
1 23.659 42.8752 40.4592
1 36.7839 18.793 40.7104
1 39.0583 27.6852 48.0296
1 3.59816 25.6055 32.3108
1 16.0574 5.67583 31.3458
1 42.8255 22.1096 10.6414
1 3.90564 33.4124 25.7123
1 26.0067 34.0149 40.7907
1 41.8162 4.75816 20.2927
1 33.241 14.0872 23.3303
1 31.3553 40.1326 47.4156
1 29.8754 29.8471 19.8099
1 0.764495 39.3682 29.5217
1 28.2949 33.5159 42.2366
1 32.065 18.2704 1.21397
1 4.95286 39.3512 39.8209
1 16.4022 14.4824 21.8747
1 45.0576 28.2163 6.96322
1 34.3356 29.8971 10.5048
1 39.972 30.0141 -0.0561741
1 30.027 6.63857 9.36347
1 25.698 15.8106 31.9389
1 20.4931 46.8956 48.033
1 24.3853 29.107 12.0865
1 6.08882 20.8788 32.3931
1 14.638 6.53788 27.4891
1 2.56747 41.1178 13.7068
1 20.7181 43.1858 36.2399
1 36.1582 9.9326 31.9763
1 22.575 7.78 21.8206
1 38.902 14.0114 19.2467
1 39.654 1.57792 8.49897
1 30.5043 31.1063 33.1207
1 24.3832 11.7009 44.0702
1 38.5654 43.9164 3.66183
1 34.4104 21.4413 4.81816
1 37.0846 48.811 26.194
1 28.0966 18.6617 32.3723
1 31.7225 3.15529 25.9737
1 25.3248 15.4787 8.82762
1 26.1963 3.22787 29.1727
1 5.53248 17.6647 15.807
1 17.7773 32.8945 24.4827
1 6.43642 43.9707 39.7165
1 34.6589 7.30784 25.415
1 7.26356 46.3969 35.8932
1 39.2814 33.972 27.0017
1 25.672 14.1672 44.3691
1 7.49726 19.3987 23.0882
1 26.6827 10.8337 12.2372
1 26.4956 47.9483 5.21544
1 20.9577 49.1121 4.56818
1 5.28439 47.9441 3.86711
1 40.0293 17.4986 8.63057
1 5.88704 39.9387 37.0953
1 9.33509 38.8993 45.5844
1 26.8898 35.124 13.5698
1 49.4764 27.4379 10.5093
1 17.0682 44.3541 15.4046
1 42.2453 21.6544 24.4107
1 33.6356 31.6141 25.2815
1 11.8924 13.224 3.32527
1 10.7392 37.8993 4.33177
1 46.3475 32.4284 5.47332
1 41.781 34.3431 28.1421
1 11.2514 18.3733 29.8503
1 45.5746 36.2854 9.22849
1 12.247 23.7724 40.6615
1 48.9032 47.7531 36.4337
1 47.9979 17.7806 35.9604
1 29.856 32.1406 27.9963
1 6.45566 21.1199 38.293
1 34.389 6.90126 15.2897
1 32.626 45.9646 19.8505
1 33.3752 31.2689 21.1715
1 10.4862 29.3467 32.0106
1 32.5379 6.808 49.3334
1 16.1052 11.731 35.5626
1 29.8651 22.7319 14.5287
1 43.176 40.6774 31.5114
1 24.1885 19.0846 26.9748
1 40.1611 24.3657 42.5511
1 8.91498 49.6944 22.1857
1 8.68721 31.2709 47.3402
1 33.3503 16.3986 40.1958
1 42.7266 27.2099 9.0239
1 33.7926 0.0388665 21.1709
1 18.8036 3.24116 2.70551
1 19.3968 0.815327 14.8343
1 13.2583 40.9295 2.21799
1 11.5877 27.4935 22.7179
1 21.7297 38.6465 47.6426
1 20.6175 7.9791 18.1769
1 28.96 37.4615 25.1846
1 10.8579 21.1015 1.40009
1 6.51187 20.6197 11.8504
1 47.4569 10.436 30.2854
1 41.6389 7.75932 29.7027
1 44.9282 5.37618 36.8778
1 22.0355 47.5079 43.1515
1 11.5295 29.4334 24.7854
1 7.63496 17.2793 25.2894
1 -0.00100579 48.4796 48.5387
1 1.99222 21.717 21.5252
1 39.9566 37.2088 17.531
1 14.6652 24.8164 21.0942
1 7.93576 45.169 5.12687
1 26.5303 23.1868 6.2515
1 20.9813 47.2319 6.70433
1 29.0097 17.1633 46.4103
1 44.9011 34.2443 21
1 3.92868 31.9759 17.8689
1 46.6558 42.5445 5.20702
1 35.3892 45.5935 28.4634
1 29.6628 1.89224 49.2563
1 14.0825 6.8553 48.116
1 46.2933 12.3462 3.45649
1 35.4368 1.15294 47.3549
1 15.1572 40.4861 33.5661
1 23.5859 32.2251 21.6639
1 10.7389 18.8167 12.3113
1 3.34076 21.443 47.2088
1 39.0063 46.3786 5.16941
1 38.2329 16.9665 23.623
1 0.918543 6.34887 20.4062
1 23.0058 42.615 25.2822
1 22.9781 21.8139 8.88523
1 15.206 25.0988 44.2002
1 22.4673 31.5892 8.81189
1 25.7657 37.8042 31.9833
1 40.5415 18.2728 15.1277
1 35.0777 19.5805 18.1363
1 6.97794 42.9138 16.5671
1 1.52346 41.8403 29.8384
1 15.407 47.2799 30.7713
1 27.5805 13.6806 20.075
1 1.64182 0.246539 38.9361
1 6.77917 33.7508 40.04
1 45.2089 44.0241 29.604
1 8.18005 2.76844 29.1857
1 36.61 14.3899 47.4394
1 44.4717 17.5227 3.70635
1 23.8344 34.9266 1.0196
1 2.02365 25.4897 18.1479
1 33.7035 3.0385 12.8026
1 17.7654 5.70817 19.7875
1 21.4034 44.4821 15.7912
1 4.82197 31.7091 34.7989
1 24.6174 32.2524 1.58639
1 48.8383 45.2967 1.67599
1 3.34723 7.60714 23.141
1 30.8929 31.7671 6.99905
1 32.302 10.2703 27.649
1 29.8051 42.4003 33.7546
1 39.6644 36.5619 35.1803
1 8.99286 8.38012 24.5206
1 17.6417 44.6703 21.8277
1 49.0923 46.1645 39.8161
1 16.8175 29.1876 43.17
1 24.4265 18.7173 39.2221
1 38.6844 4.91533 26.7595
1 21.2812 24.6152 23.0063
1 18.0639 35.6449 29.2533
1 37.4871 0.924269 4.4586
1 6.36386 41.7002 45.1602
1 19.4262 15.5536 4.58217
1 36.431 42.1415 46.9941
1 10.6498 35.2487 29.4389
1 36.3871 -0.0519112 1.90304
1 11.726 17.0502 5.95128
1 37.3367 27.6958 31.6484
1 45.1811 41.6478 26.8015
1 49.1784 1.86758 30.5948
1 41.5489 14.3866 11.6993
1 6.77856 49.6777 43.0038
1 24.9793 10.7825 46.4851
1 -0.112236 23.1666 30.7237