4096
 Atoms. Timestep: 5860
1 42.6956 31.1974 0.776022
1 0.324354 2.0278 25.4457
1 10.7813 18.5592 27.7932
1 39.3989 43.5995 9.39984
1 45.1727 9.46731 49.1581
1 49.378 18.2288 31.1495
1 24.7656 24.8955 15.6258
1 11.6532 48.2048 22.886
1 45.951 36.4017 28.8083
1 17.5018 7.82105 13.0108
1 46.3136 43.743 34.443
1 41.8518 32.514 10.1056
1 46.8521 26.0544 25.3567
1 40.0831 35.9785 37.4886
1 19.0694 9.3766 1.41664
1 5.20052 35.0234 8.63155
1 9.8718 16.8015 36.9586
1 3.59726 17.2184 7.77435
1 28.5654 26.6353 9.7343
1 14.123 45.1347 37.6583
1 21.6585 39.9104 8.98618
1 41.5074 4.10944 32.2899
1 11.4116 2.34944 48.4791
1 19.9888 43.9948 17.4289
1 32.677 24.4252 21.6428
1 42.2085 18.4884 5.9452
1 16.8841 37.7065 35.1374
1 44.5359 27.7847 17.1701
1 41.0629 2.96883 23.8395
1 36.7582 0.0854799 23.4644
1 11.1354 6.71431 41.2804
1 32.3152 14.5196 25.7342
1 32.1534 41.532 4.31838
1 2.01253 6.48526 18.844
1 7.07894 28.5517 18.484
1 21.5312 28.0536 49.5469
1 21.5643 24.7559 3.24612
1 29.3315 45.5874 37.762
1 31.237 44.2646 11.5868
1 36.1099 18.727 10.5716
1 3.65632 16.1612 24.9913
1 33.9034 31.0223 36.2313
1 43.8326 11.9465 18.3823
1 43.9439 30.5228 43.2118
1 3.16392 17.9173 11.4388
1 35.3551 7.01285 48.9963
1 19.3916 17.1103 5.57846
1 1.47926 45.1021 18.1613
1 27.6746 43.7211 36.8687
1 13.1112 13.9906 38.5114
1 46.2275 31.2837 19.1889
1 27.4617 48.6605 42.1531
1 43.496 11.6941 2.8864
1 21.5637 19.5793 24.3702
1 28.4196 28.5851 20.069
1 3.91574 46.4594 41.0991
1 43.7687 24.1207 18.4446
1 41.0203 9.2159 29.8841
1 19.7746 36.8207 15.6129
1 6.01379 49.0961 5.84081
1 21.522 38.9383 27.9141
1 20.2798 21.682 40.3992
1 23.781 0.376076 36.4928
1 9.63868 37.2707 38.0151
1 21.2146 0.47995 49.6498
1 0.288452 27.6871 9.28332
1 39.2837 11.2501 38.1375
1 4.70535 19.7773 43.0301
1 15.0764 37.5639 46.9948
1 25.8577 5.07618 4.3548
1 6.88667 31.9356 20.6731
1 45.0722 35.7456 15.461
1 41.2468 4.35271 5.5683
1 43.3557 47.3273 2.26601
1 11.2294 36.71 32.7282
1 40.0535 13.4527 44.7472
1 6.3245 24.4053 31.1604
1 16.2593 46.269 45.2754
1 28.8019 13.9154 15.1264
1 44.4929 45.8821 14.4376
1 28.4967 19.8926 37.8122
1 8.35589 18.0637 26.4345
1 5.89595 17.5398 27.3602
1 33.673 17.3091 11.4148
1 8.04736 25.6801 11.0435
1 27.9163 17.0412 14.4383
1 36.1823 3.80392 40.5423
1 45.8978 12.8758 1.95268
1 2.19862 37.3789 2.19891
1 10.7084 28.1584 9.20985
1 2.23297 8.24408 39.4136
1 10.6968 45.8047 10.8713
1 31.7823 36.7911 20.7388
1 12.1234 35.7215 7.58748
1 25.4895 37.2052 48.6676
1 29.125 5.35637 5.90187
1 6.37666 14.0918 23.8638
1 0.0900522 20.6437 21.5746
1 28.057 19.177 25.347
1 34.9939 25.715 36.8094
1 9.22052 3.78234 11.9808
1 37.7139 13.6526 37.3666
1 18.6891 23.1002 34.867
1 46.8293 0.304627 42.2737
1 29.1349 35.9489 41.3735
1 22.8637 23.6527 8.22635
1 6.67207 4.0562 24.1141
1 10.5505 5.32005 34.8594
1 6.30626 38.6308 27.132
1 3.81646 23.0089 25.0554
1 44.0528 28.9412 49.695
1 37.1654 48.8313 12.614
1 34.2377 45.3438 38.6389
1 41.7279 33.1673 18.4965
1 22.599 24.9452 19.7818
1 48.4862 34.2438 1.85317
1 9.48581 37.678 19.0691
1 40.316 22.7789 14.4388
1 5.8331 32.0075 25.3505
1 15.0003 5.5451 29.7575
1 19.5113 47.968 35.2575
1 49.1781 36.0318 24.2324
1 42.156 26.0379 39.4089
1 24.3215 8.93034 19.9102
1 1.33904 0.394999 40.087
1 47.9504 25.669 21.3159
1 47.6658 22.8367 17.8829
1 4.46124 22.7421 37.5698
1 15.1442 10.5147 47.4192
1 19.8821 47.0877 20.61
1 39.1713 47.7531 46.3914
1 31.2263 1.25795 1.4542
1 10.6175 31.7555 45.2608
1 6.65003 3.52165 15.8013
1 15.5738 33.6901 41.8662
1 12.6337 39.9656 19.4364
1 3.73645 42.5712 47.6319
1 36.5046 21.142 46.5359
1 45.661 30.611 23.8574
1 41.1586 44.5499 33.3925
1 18.1429 27.33 2.70202
1 32.9578 11.5388 9.36155
1 44.538 19.1862 29.7051
1 38.5485 17.6596 44.7703
1 36.4384 10.1745 48.5824
1 15.9466 9.1732 24.5125
1 28.3807 4.35052 10.629
1 8.4587 42.7766 45.8263
1 23.3782 20.7737 37.7906
1 19.4998 10.1767 4.84177
1 8.99459 47.2058 19.2251
1 48.8933 30.4267 8.75488
1 7.19031 39.7778 11.9884
1 29.3967 25.7956 47.4732
1 48.8965 25.9245 41.2588
1 3.61124 7.55985 49.3302
1 24.069 8.0506 6.44186
1 18.9554 37.5826 12.1119
1 16.9424 42.8824 29.8367
1 15.3364 26.0023 29.5545
1 46.1512 5.34435 18.836
1 2.81266 35.3381 24.6207
1 38.8226 40.8691 26.4907
1 15.4974 2.81088 36.242
1 14.8539 6.59507 13.3854
1 28.3628 11.1448 34.0923
1 33.5916 6.89929 21.173
1 2.32793 4.35489 16.9995
1 5.30747 13.0159 19.3176
1 18.5289 40.592 28.4026
1 24.2656 37.1803 21.5789
1 40.2258 4.90229 20.7352
1 7.86296 4.29688 18.1784
1 24.0389 16.7483 10.6129
1 3.37049 25.7236 1.06614
1 9.65214 31.2548 21.3611
1 17.4292 42.7 16.3837
1 2.99332 46.439 43.7367
1 33.7181 39.0357 15.9274
1 20.0949 10.235 10.9811
1 36.6218 46.3352 27.3891
1 42.2502 18.3666 23.5766
1 9.59561 4.30465 4.61762
1 38.8782 16.9518 20.6407
1 46.587 0.157558 31.8813
1 32.3308 32.722 18.2559
1 0.358824 2.34011 49.6331
1 21.4472 29.6815 38.6682
1 34.1794 45.4601 43.1212
1 27.6953 45.0866 6.75945
1 8.35375 13.6304 15.249
1 22.2366 12.4054 38.1189
1 3.82649 32.1199 30.651
1 43.3787 39.1774 33.5513
1 11.1421 46.1938 36.2445
1 5.88713 3.89809 34.5928
1 8.74 29.1809 25.6345
1 45.2893 11.5968 12.1496
1 3.05582 10.5541 4.79687
1 1.16499 35.9882 6.82555
1 41.9901 14.8981 46.1517
1 45.0701 21.8485 29.7962
1 3.17002 40.684 28.5264
1 45.0311 34.7935 30.7334
1 40.7045 33.0067 27.5472
1 37.7785 23.9699 23.4452
1 11.8993 35.5265 13.4858
1 40.0101 2.31398 44.1337
1 20.2141 45.9951 1.51499
1 14.4648 27.9479 0.652518
1 20.4032 28.6784 26.0579
1 11.9205 0.648894 44.2095
1 42.7238 25.9954 9.20672
1 1.81197 45.6065 8.82974
1 14.4572 1.37739 38.3634
1 4.5349 49.0271 38.6152
1 48.5111 22.3449 11.4176
1 26.3554 6.2283 43.5337
1 34.9478 12.3924 5.63774
1 18.5414 30.8402 46.8537
1 48.1804 22.0711 6.57585
1 34.573 23.5604 10.9535
1 36.5033 34.3929 25.4394
1 0.505001 8.44504 36.2988
1 42.8508 9.09547 27.9038
1 10.0333 11.8468 43.5519
1 0.966504 13.8116 16.7007
1 31.9184 32.2082 12.0544
1 24.5387 24.156 35.3894
1 19.4024 0.84909 6.3984
1 29.5735 0.912754 36.6376
1 26.8627 9.51634 38.2447
1 1.92792 43.7251 34.5914
1 12.8985 28.2383 24.285
1 13.1449 24.0337 29.5951
1 1.33355 41.7955 32.1247
1 41.5248 31.6935 6.62678
1 5.76706 1.22319 45.387
1 43.1596 26.1971 22.4384
1 20.3294 6.93064 5.50722
1 27.9353 7.55996 28.8552
1 16.6163 30.842 29.7534
1 39.0123 6.83057 18.8194
1 13.3412 46.8311 19.355
1 11.6782 16.3356 1.90804
1 28.731 32.1935 24.5089
1 35.1194 8.88909 34.7617
1 42.3848 14.4333 28.6158
1 35.6524 11.9085 8.40765
1 12.8963 44.7649 10.2687
1 9.29034 43.5863 20.8319
1 37.6842 0.739986 7.69583
1 24.5868 34.7572 16.7998
1 21.8759 31.0186 43.9291
1 42.6215 44.2442 15.3376
1 40.2589 28.0151 32.4813
1 18.0471 25.9627 10.3382
1 45.6511 33.7611 38.5743
1 8.11745 5.12348 31.243
1 15.802 22.7538 13.2413
1 47.2276 13.2109 16.6488
1 20.4061 44.4221 20.1139
1 34.8273 31.5466 28.2731
1 35.7425 39.5748 48.6597
1 38.2174 48.2016 8.43136
1 35.7097 29.7406 4.96041
1 43.3055 26.2545 49.3132
1 15.5465 47.7939 12.9113
1 30.535 48.391 33.5163
1 33.0787 37.1675 24.3294
1 31.7306 17.8787 40.3964
1 7.26 17.4172 17.7214
1 46.5495 33.3486 16.2087
1 7.75048 9.48934 24.9876
1 11.0954 24.3621 26.4565
1 11.1035 45.1234 19.076
1 45.6819 10.4468 16.6431
1 8.24233 23.527 6.92251
1 30.033 19.6321 21.9794
1 39.4989 29.4278 19.7369
1 5.40624 27.7937 38.7139
1 17.219 48.0621 4.50504
1 41.5361 22.6796 35.7614
1 21.1844 43.9529 9.07616
1 38.987 0.977685 32.9556
1 20.0064 41.9618 35.5925
1 23.103 32.6462 24.5506
1 22.0666 42.5174 49.0784
1 14.834 28.5646 39.5223
1 15.3923 45.5271 20.6196
1 40.7041 46.3809 31.3323
1 28.3585 3.86628 46.6521
1 22.7884 30.9563 14.2019
1 9.5887 19.0654 35.1438
1 14.215 29.3741 36.5808
1 14.7763 25.2143 44.4565
1 45.0049 19.1732 0.173159
1 32.7843 18.9797 37.9384
1 32.8288 34.5171 35.6456
1 14.7625 15.141 21.9097
1 0.778533 27.1033 35.5246
1 33.7566 0.449181 23.3627
1 0.508588 5.01404 49.4033
1 14.3712 11.3426 23.8469
1 9.02871 10.7133 14.0982
1 1.87071 12.1714 21.2896
1 35.0957 36.2508 1.44333
1 46.448 39.9236 18.0508
1 33.0212 5.44678 18.5074
1 28.1508 41.0006 19.2609
1 48.1984 25.7358 38.66
1 7.6727 17.4398 44.9506
1 48.88 20.7464 46.0546
1 23.738 15.2716 6.27738
1 15.228 44.6887 16.9485
1 3.56116 27.8834 41.5064
1 33.3348 44.1952 36.3823
1 19.0135 37.525 44.804
1 29.407 1.96672 27.8288
1 47.7127 12.9828 12.1666
1 31.9079 37.4097 38.796
1 47.489 1.14756 35.7192
1 43.0759 18.6604 45.7619
1 13.9172 19.205 48.5095
1 25.6558 20.2317 1.81169
1 22.2326 28.2408 42.9943
1 8.6595 4.36637 7.17924
1 8.46362 26.3259 34.8547
1 21.4857 1.33721 40.1804
1 21.114 20.6137 21.311
1 43.4613 23.0792 12.7298
1 27.6829 5.10609 25.449
1 42.4523 17.3485 40.2782
1 36.7878 33.9231 31.7701
1 15.1416 11.9512 27.6041
1 31.726 12.9354 21.531
1 45.3692 29.5248 32.135
1 16.9876 44.0889 48.9233
1 2.88226 23.925 21.3014
1 26.5433 26.8088 18.7059
1 48.5234 6.36331 25.1539
1 35.3492 24.0641 46.3188
1 49.6127 7.20302 42.6685
1 21.7932 9.94958 39.4548
1 33.1417 34.5465 10.077
1 32.7012 22.7098 47.599
1 25.7943 5.54352 18.0681
1 29.2482 31.3752 41.0106
1 25.6296 18.9246 40.5394
1 33.9701 1.16465 2.08404
1 0.148834 48.0663 28.2313
1 38.8702 25.2903 46.4206
1 18.6503 17.599 39.2804
1 32.9566 3.33368 10.7748
1 2.63503 37.6675 35.8338
1 44.3241 3.61681 31.0363
1 45.2282 25.2928 12.9623
1 40.2613 10.8594 40.622
1 17.4005 1.02827 28.8561
1 23.1276 48.5273 21.6229
1 22.8737 31.1225 26.8872
1 25.176 33.8949 8.78969
1 28.5208 10.712 23.0709
1 19.4811 15.0382 42.2163
1 3.3609 47.6696 14.9472
1 49.4064 8.97241 44.8003
1 35.8282 22.8928 3.31464
1 44.1144 41.8143 40.0738
1 17.4171 19.942 36.3935
1 3.55505 40.1143 36.878
1 25.6181 4.26329 10.8944
1 46.9443 6.03204 14.1813
1 6.74621 13.6682 11.1692
1 28.4075 24.8577 2.73014
1 36.4647 13.4831 11.7452
1 2.09438 5.87037 12.0524
1 3.1238 34.8975 2.46439
1 34.0727 43.1986 4.70882
1 25.5656 48.6049 20.7898
1 24.1215 1.13564 40.6955
1 13.8834 7.81414 39.7265
1 41.2902 10.5438 7.90189
1 37.104 31.7992 29.9148
1 12.1941 42.0254 9.55193
1 16.3353 14.8233 46.4599
1 5.10438 13.5636 42.4191
1 0.759353 23.6046 5.69915
1 22.6235 19.9868 30.9035
1 44.1931 15.0742 43.6602
1 42.6216 24.1428 15.5577
1 28.8797 35.0477 46.4381
1 22.3159 12.5732 10.3481
1 28.6162 27.7 48.9178
1 19.9945 34.5054 9.8129
1 24.0205 15.0305 30.9702
1 33.9645 10.8384 29.1435
1 12.0356 12.3927 19.9245
1 43.9761 16.0298 9.69184
1 33.6322 33.3055 22.2351
1 31.8272 38.7649 32.526
1 17.442 17.6202 29.9183
1 10.7082 5.98889 8.56933
1 35.7156 1.23666 27.2369
1 34.324 36.2176 48.6581
1 3.67405 18.3536 46.8968
1 7.20016 38.2753 21.9851
1 23.9062 15.6672 27.1446
1 5.08239 47.2969 31.48
1 22.2781 5.20886 20.068
1 27.999 46.2691 40.9398
1 23.09 1.7617 26.3122
1 7.42371 6.96074 18.1047
1 16.3372 40.0352 23.2125
1 6.58511 35.864 26.7251
1 15.3554 38.1185 42.5762
1 40.6989 38.0302 41.1329
1 16.8375 24.4133 16.9147
1 25.0531 28.1811 33.7276
1 28.2949 38.8751 25.4443
1 26.0211 16.3644 29.0287
1 49.3381 36.2053 12.9795
1 9.14694 22.3574 27.3032
1 47.4651 39.725 26.1848
1 21.1035 30.5292 34.2738
1 15.8637 48.0219 9.02688
1 25.0466 12.3643 49.0028
1 16.1374 28.8053 19.7691
1 11.4494 36.6949 41.457
1 24.8569 28.3002 46.7788
1 11.7566 12.0589 39.4159
1 17.8267 16.1703 37.2196
1 18.8642 5.29356 1.60235
1 8.89689 25.3732 42.8451
1 24.8686 21.4748 40.1612
1 3.26692 1.8878 12.6273
1 46.5109 7.50741 39.4807
1 17.0261 29.5035 36.5118
1 25.3585 8.69912 24.2928
1 43.6678 27.4875 37.7911
1 4.7288 46.8715 36.4771
1 31.5807 1.63259 17.047
1 2.39678 17.113 29.1843
1 17.1483 48.5375 25.0302
1 48.9655 30.9907 33.494
1 7.00518 3.06292 43.5907
1 47.7156 5.34545 43.2533
1 7.21176 13.9728 40.8431
1 44.7823 22.1317 24.8153
1 48.5008 41.5476 11.5158
1 32.4078 43.4741 8.45339
1 5.57178 11.6656 27.2924
1 20.4637 7.11394 47.5944
1 48.8268 33.6361 17.8733
1 7.71256 5.95207 43.7248
1 12.8707 23.5059 22.1112
1 18.2771 29.0354 18.1961
1 24.2639 47.9061 39.4721
1 42.1655 36.3633 20.7315
1 5.64984 11.6405 13.3197
1 44.37 14.6958 37.0889
1 29.6958 17.0707 28.0138
1 0.171695 28.3824 46.1769
1 40.1428 23.9486 24.5774
1 41.0738 32.6026 3.9916
1 36.1737 25.4447 32.2634
1 6.56601 9.23683 31.1689
1 22.9286 40.5696 19.3866
1 4.40332 48.6561 33.6711
1 3.35102 47.1484 46.5215
1 29.055 23.8019 29.8803
1 15.7359 26.6064 22.3216
1 30.1028 36.9559 16.5116
1 41.7284 10.8746 10.4718
1 21.7759 20.2263 34.6218
1 38.6201 3.73344 32.3205
1 47.7975 15.3095 7.74755
1 30.6784 13.725 5.09563
1 37.2135 42.1254 40.4522
1 47.2871 13.3995 33.3345
1 36.2885 33.7669 17.0149
1 32.2222 19.4699 42.5316
1 3.70672 4.78009 46.2731
1 3.69876 38.1135 45.4106
1 41.9876 13.3165 22.4774
1 1.94893 49.7645 29.3345
1 15.0464 47.8275 43.2632
1 41.3192 16.6901 7.83341
1 30.7255 17.3414 7.22215
1 9.27212 38.7304 46.4015
1 17.9326 26.1059 48.5377
1 48.6072 35.0326 21.1194
1 31.6165 24.1234 31.057
1 44.2456 47.5269 21.5856
1 7.25001 49.1677 13.0705
1 39.5254 5.85673 40.2496
1 7.54873 18.7811 10.3449
1 41.7313 40.4328 14.5901
1 12.5917 39.9993 13.696
1 18.868 19.2492 47.775
1 48.6996 4.47721 18.2144
1 19.3469 18.4371 11.8985
1 16.5635 44.7433 32.1223
1 9.38496 39.1114 8.46869
1 11.0006 10.8908 48.6788
1 44.8387 19.2573 24.0224
1 12.0027 24.958 3.98057
1 18.9069 27.875 0.326502
1 33.2186 13.708 45.3555
1 9.0422 19.8628 15.5441
1 28.3347 40.6858 37.393
1 18.7202 39.258 1.16342
1 35.5917 15.3229 16.9338
1 32.9221 48.7327 47.2883
1 19.9216 13.0344 29.985
1 42.8323 15.4389 20.7854
1 33.9313 29.0807 27.4003
1 13.0311 12.9776 13.6769
1 49.5705 44.784 2.88358
1 8.30158 31.557 33.2022
1 31.0691 41.4592 38.1573
1 31.8399 43.065 15.6988
1 11.1805 1.94915 11.4072
1 11.8343 27.8231 0.850906
1 16.3002 10.3002 12.7671
1 23.8884 26.74 38.7476
1 33.0245 32.9412 29.665
1 29.1935 42.5719 10.9197
1 35.9573 14.8879 34.6509
1 24.721 29.1926 9.32759
1 14.5497 14.9731 10.5284
1 45.9407 29.3091 41.7491
1 26.1141 6.37114 23.0695
1 5.309 32.0938 22.7668
1 26.2066 18.816 33.9436
1 37.7677 22.232 33.5369
1 32.4881 3.70366 24.627
1 7.47129 36.1251 11.779
1 20.414 41.1516 17.7853
1 27.6834 43.0869 8.65369
1 3.77327 28.9295 9.74318
1 18.7014 33.0473 7.88613
1 39.0972 12.7668 41.9517
1 18.9619 32.521 21.2803
1 30.7473 6.07143 26.9787
1 2.65524 30.9569 0.378956
1 39.6024 38.8568 8.91609
1 17.6112 21.7334 47.3718
1 23.8547 45.2776 5.5868
1 37.8587 27.1933 28.2883
1 37.3887 43.6948 27.4808
1 28.4786 49.0026 47.6853
1 32.5764 17.9538 35.004
1 13.526 15.4194 25.5023
1 15.8939 19.5943 5.06923
1 41.2745 36.4993 12.6129
1 42.927 6.28561 6.10967
1 15.462 5.02931 32.552
1 47.6036 31.8001 46.2374
1 11.3151 4.9999 20.0598
1 31.3688 35.9287 43.6296
1 0.0617189 47.3916 32.5473
1 46.4779 42.7078 22.5386
1 27.9631 15.9099 38.9677
1 22.4983 29.4087 18.335
1 5.85287 47.1599 27.5798
1 45.8626 26.5229 36.2628
1 6.05024 6.93199 10.3196
1 15.4018 45.1404 23.2295
1 32.9758 7.64965 36.0795
1 35.0785 6.76616 43.03
1 4.46197 15.0803 12.825
1 0.659428 29.4041 39.124
1 15.9125 31.5643 4.0955
1 37.1423 45.0557 22.0801
1 35.3181 45.5634 15.2342
1 35.968 22.6527 25.0009
1 10.3565 16.542 12.4754
1 33.0672 0.115896 26.0359
1 45.9399 38.612 35.0808
1 32.5015 25.2847 35.1019
1 43.614 6.93219 34.6514
1 46.0119 17.8727 4.94646
1 33.8874 9.32183 16.3645
1 21.7273 16.2368 0.902504
1 44.5238 13.298 27.2805
1 15.363 41.4255 5.2833
1 38.5923 42.3235 14.3975
1 9.66669 14.7956 8.88242
1 39.3056 10.5644 33.3242
1 11.6129 30.5397 28.4358
1 2.60074 8.70286 29.0877
1 9.92297 13.5786 41.382
1 30.4551 23.1151 16.7679
1 4.43807 16.8545 34.7867
1 41.9034 8.22717 43.6475
1 13.8642 1.56591 25.3283
1 4.48833 4.6925 15.5571
1 48.9125 14.5857 27.5455
1 12.0012 29.8087 14.9728
1 14.7813 20.3725 2.54346
1 3.15049 19.0343 34.0107
1 45.221 40.3041 27.5605
1 3.21887 5.06838 0.374483
1 18.6195 39.3656 19.1454
1 48.9249 45.8063 7.28121
1 39.2806 32.3941 46.8953
1 27.6359 24.1326 9.95441
1 16.12 46.8723 47.8052
1 38.0926 33.0156 12.5584
1 36.6357 45.5351 31.6192
1 35.4858 42.5813 30.4518
1 42.5924 22.3569 7.48692
1 49.5136 40.445 13.753
1 8.24916 2.07489 41.2008
1 14.322 35.4507 48.3209
1 32.6874 25.2525 24.0807
1 6.46908 43.486 14.3177
1 46.0879 17.4384 42.7018
1 38.9061 45.0608 47.044
1 0.795155 34.1873 48.2371
1 48.8966 9.43492 47.6272
1 7.12935 28.6411 36.3048
1 1.66045 6.36876 34.3376
1 45.8126 30.201 16.6457
1 35.2868 31.5427 9.6152
1 14.8393 49.1334 48.4494
1 26.7102 39.2646 34.7946
1 18.9397 24.6321 3.34025
1 21.957 6.5394 10.5966
1 33.4316 31.371 24.1739
1 49.5654 0.467005 5.58433
1 29.5826 1.12889 46.6583
1 34.7192 42.9307 27.4979
1 11.715 2.17003 4.79457
1 44.7503 2.07528 39.0655
1 16.1681 36.2851 26.5653
1 16.0184 37.0451 9.48757
1 36.3039 38.0763 41.768
1 22.4078 9.20957 48.4132
1 30.4833 47.7346 39.4227
1 3.57071 30.2902 44.3575
1 38.0486 47.9221 32.6055
1 48.1797 23.8658 33.3085
1 10.6123 49.0837 27.5595
1 25.6759 28.9065 29.2457
1 10.4986 27.7756 35.1337
1 10.8015 26.9021 5.00834
1 36.1165 25.5157 48.5085
1 11.2479 4.09604 15.5971
1 9.5592 41.3363 33.5656
1 10.284 30.4786 34.8147
1 3.06139 42.5421 6.15854
1 25.3218 30.8333 39.4382
1 23.455 47.6158 25.0428
1 41.8056 4.57743 9.61091
1 21.8821 33.1891 5.20204
1 11.9289 43.578 2.28684
1 1.00233 2.68346 28.6023
1 35.2812 33.5056 44.934
1 46.032 3.49337 0.274929
1 39.9794 22.2168 16.971
1 41.9952 29.2457 36.2997
1 30.0076 34.7698 48.8536
1 10.3762 6.52169 14.8693
1 19.0076 20.1775 2.36899
1 22.4167 7.08265 38.2737
1 25.7798 17.9221 45.725
1 25.5862 38.1099 3.49821
1 7.0801 49.2102 25.9767
1 44.4284 27.4604 33.9381
1 31.0235 41.2664 45.5928
1 34.5938 41.0022 43.8186
1 12.5226 28.5145 32.0314
1 2.66512 28.7954 35.7808
1 0.947263 36.8934 20.3399
1 5.98006 37.1373 19.7226
1 15.6929 36.1444 21.4746
1 29.5146 21.6732 28.0387
1 12.4177 33.525 5.99895
1 31.4359 47.0983 0.995457
1 21.8841 23.6819 10.735
1 24.3192 9.96095 12.7219
1 31.2146 21.7152 45.3557
1 13.2128 31.6259 37.765
1 0.629607 18.2409 34.0948
1 40.0536 42.6997 5.69478
1 42.2522 7.05684 8.92326
1 27.6723 28.6201 37.9986
1 44.696 42.9247 28.3252
1 33.0209 7.22977 28.5505
1 43.957 21.6069 35.1787
1 31.8072 16.9917 13.8182
1 45.9295 2.2342 29.3113
1 28.1976 13.9317 3.48988
1 32.4381 3.38612 36.6245
1 17.6977 37.1478 47.1972
1 14.7266 42.3474 24.1726
1 12.1587 40.7301 44.4605
1 0.847065 27.5106 13.7282
1 43.8088 48.6966 49.7391
1 10.995 33.3434 49.6186
1 21.6874 22.0102 32.4282
1 32.8718 36.5045 6.32967
1 13.6747 49.5754 6.40941
1 27.869 35.4624 23.0032
1 48.4581 11.8824 5.51172
1 22.6388 23.1149 15.9042
1 25.411 9.74128 32.7424
1 45.2402 41.0517 0.808914
1 3.41148 36.7145 28.8377
1 22.4531 27.8728 9.82193
1 24.5434 43.401 45.8916
1 39.3854 24.6037 1.27729
1 18.0408 37.4579 21.8183
1 46.9147 5.8984 45.7699
1 28.1661 12.4906 31.7794
1 38.2128 28.3885 11.0638
1 15.1446 4.14009 13.9959
1 5.83185 0.670456 8.52765
1 8.5337 16.0336 20.4979
1 0.310225 47.53 14.2474
1 35.1153 11.5253 23.9401
1 7.12535 42.9383 7.54296
1 14.7868 29.2688 4.5799
1 23.6861 23.6767 32.8708
1 18.688 39.5012 35.8724
1 22.5606 42.253 12.3839
1 23.3477 47.6745 9.39677
1 43.9865 14.8765 18.3216
1 12.2269 28.1945 42.3322
1 42.8167 38.1869 14.0361
1 5.21627 6.93777 43.8604
1 7.24471 23.8901 28.4918
1 37.9883 27.8064 36.4467
1 17.4255 29.019 45.5131
1 19.4659 1.80345 21.2803
1 14.401 7.30834 33.5537
1 41.5678 28.6794 43.4612
1 34.2541 13.843 14.8268
1 1.95595 39.1568 13.0786
1 42.6356 23.7588 37.9693
1 39.0068 30.4713 6.37628
1 30.3502 25.349 27.3724
1 7.5739 30.3795 42.183
1 46.7525 17.4743 31.5925
1 3.64918 0.643575 15.036
1 19.869 35.7269 23.6616
1 20.7945 34.1541 27.4852
1 2.47706 41.0062 40.547
1 21.8822 17.3976 28.3085
1 31.2243 47.6755 7.45095
1 27.8525 48.6402 25.0574
1 45.2005 38.6974 43.1482
1 16.3852 15.6403 15.7342
1 12.4924 32.3946 34.9691
1 10.6703 9.37576 32.3177
1 27.0508 48.1886 5.22994
1 44.9448 18.1336 47.5511
1 14.7091 38.7285 11.1974
1 45.364 34.528 33.4889
1 4.21482 22.1318 32.9227
1 41.1888 16.7432 27.6395
1 14.7463 29.436 45.5832
1 40.6876 30.9636 48.3878
1 32.9068 44.7912 27.8153
1 14.3278 41.2872 17.8723
1 0.865412 38.1521 16.4717
1 35.2425 30.2159 45.4727
1 46.6528 11.545 39.6908
1 42.7004 1.79133 29.9087
1 32.0187 5.18023 0.511646
1 27.5199 39.0088 8.31957
1 27.7602 41.5147 33.679
1 5.37453 23.1534 15.6042
1 15.9844 16.8821 8.21204
1 3.48264 49.7518 46.3867
1 36.3633 25.9207 5.58545
1 46.2784 37.1697 48.1897
1 26.5413 21.3504 33.8256
1 29.4645 22.8905 1.05383
1 36.8423 32.2454 4.97029
1 0.431046 48.5791 1.42964
1 14.3344 33.4618 39.2587
1 12.4801 10.7661 30.5357
1 24.3528 35.7249 44.9943
1 29.6938 30.24 9.56499
1 31.6685 23.7368 43.4297
1 34.5307 21.6058 38.1451
1 0.240231 37.5272 44.5218
1 32.7402 41.685 0.0186234
1 41.6355 48.1913 22.4965
1 32.2936 16.5209 28.8124
1 45.0798 1.92174 34.5037
1 10.7837 10.2617 37.4193
1 43.4155 36.0117 34.6678
1 45.2498 46.7558 45.4598
1 25.7968 26.6204 21.3703
1 18.8971 32.5213 30.1172
1 43.3437 14.6704 6.66579
1 46.5438 14.4008 45.4008
1 37.1679 25.3919 34.8895
1 11.7545 22.6736 37.4995
1 35.7873 39.2 45.8464
1 1.59901 11.679 14.9216
1 23.736 18.9414 22.9761
1 11.7773 10.4755 13.922
1 15.4893 0.0686831 1.38518
1 37.9053 18.3682 2.35661
1 7.25337 49.6917 40.0612
1 33.3057 39.3507 13.1168
1 39.0825 25.4243 20.8925
1 18.5869 19.7936 4.89745
1 8.50559 14.0959 36.977
1 38.7615 48.6476 42.8629
1 49.4853 25.3056 12.8708
1 32.1789 37.8111 28.989
1 32.8989 22.4486 32.6915
1 8.3516 48.5648 0.931008
1 40.4103 38.4557 20.8493
1 30.5082 18.576 24.215
1 32.7239 42.3464 13.1665
1 45.8744 14.8129 31.2441
1 40.986 40.6055 30.128
1 8.87104 10.675 26.9618
1 1.61501 14.7199 23.5441
1 0.993776 20.0689 44.0224
1 49.0052 19.2018 2.25528
1 24.5562 46.387 43.7921
1 5.704 10.1784 17.366
1 40.7791 17.2476 47.0969
1 44.2056 9.34324 40.1369
1 23.2187 7.95413 14.0332
1 0.824108 20.4847 14.5878
1 14.2567 18.226 44.0684
1 7.38476 29.3631 29.8444
1 18.2829 8.47482 48.6679
1 19.9087 25.8388 40.2433
1 9.41589 28.6258 27.9997
1 24.7755 5.29139 48.8631
1 40.7424 3.46205 29.3308
1 39.8927 12.0314 5.7409
1 12.8605 49.7274 29.3763
1 14.0578 26.8104 46.5152
1 3.39056 27.7089 24.3138
1 12.0759 5.55735 30.651
1 15.3529 36.425 17.1658
1 27.4765 31.7967 29.144
1 12.3062 45.4465 44.3134
1 15.3045 37.315 37.7477
1 41.3218 1.33393 47.7779
1 8.12147 41.7852 18.9156
1 31.5997 8.62017 48.5078
1 20.2195 45.5238 31.6623
1 49.1254 9.53111 17.1645
1 24.0132 10.4114 10.1504
1 10.2897 2.62686 23.312
1 30.5873 29.2266 33.3928
1 27.3143 12.1324 40.8052
1 33.3993 48.5455 35.8416
1 25.034 38.9731 7.9593
1 11.3763 22.8129 45.4649
1 2.43994 48.0969 10.3394
1 15.4609 33.2504 21.0309
1 18.5226 28.5286 7.03069
1 42.5086 30.2819 12.9514
1 49.1227 41.42 30.2079
1 46.6665 37.67 16.6142
1 18.652 26.6474 45.9046
1 47.7846 37.847 7.28984
1 40.6636 20.3543 13.679
1 24.5712 23.9691 21.9041
1 45.2993 0.212191 19.8332
1 22.5936 22.4681 18.3182
1 38.6775 26.0214 41.6476
1 13.0145 37.4375 25.4502
1 18.0129 33.3811 43.2992
1 47.3071 9.65223 3.9884
1 15.9806 8.26012 29.6835
1 48.2877 10.4422 23.4458
1 0.290527 9.90283 32.1186
1 34.8365 6.25936 23.7429
1 7.40263 45.8161 29.3595
1 17.6553 39.189 43.4234
1 20.1912 12.0496 19.1397
1 2.38933 21.5576 9.11951
1 40.7334 28.5012 5.44602
1 43.4507 17.7106 3.48632
1 21.5644 41.9837 28.885
1 12.4013 47.9361 38.4934
1 44.1494 5.07997 13.9525
1 42.0525 37.9811 29.8092
1 17.9451 45.892 6.14594
1 1.52977 41.309 20.8987
1 24.9578 21.9829 3.65438
1 3.87236 31.1436 5.36352
1 36.5869 7.07431 2.22159
1 22.3035 5.61909 29.541
1 6.11024 20.2377 12.2529
1 15.5617 44.4183 6.63777
1 32.3713 27.8853 37.1999
1 12.0813 15.1492 36.5176
1 21.3209 39.5453 15.7781
1 1.41936 17.6326 45.1521
1 30.372 5.78634 11.5844
1 48.967 15.4672 13.3548
1 36.3318 36.9351 28.5957
1 11.4521 37.7646 0.346415
1 32.4869 40.5599 19.5131
1 8.45507 47.9301 23.737
1 44.7611 46.995 36.4965
1 1.01403 43.6879 40.3358
1 49.7069 1.75955 21.6342
1 21.7939 6.10899 43.457
1 4.57989 49.5341 29.0319
1 7.4137 37.6126 31.3937
1 49.3333 20.2962 38.9261
1 10.8495 41.9367 13.4796
1 21.0859 43.7042 47.2346
1 42.2985 1.07799 19.8379
1 28.7284 12.6868 27.703
1 0.177618 49.3692 19.9718
1 47.7764 11.0645 44.2292
1 18.4833 44.0092 10.2147
1 35.798 27.251 26.7406
1 36.2026 0.829961 5.37199
1 25.0059 21.0409 18.6635
1 10.9433 31.0009 39.0883
1 29.1821 49.2798 44.154
1 5.87166 40.1391 44.2367
1 27.0261 1.64136 14.1135
1 18.5702 0.0650391 14.4599
1 1.35885 32.7817 27.0951
1 28.1125 3.88734 18.468
1 30.7063 12.206 25.6856
1 35.2318 28.5827 36.2096
1 10.618 47.2836 31.2753
1 37.7448 12.508 23.1726
1 5.15416 12.6501 33.9409
1 19.6825 37.1332 27.5474
1 8.57339 47.1065 7.09216
1 28.8975 19.5267 29.094
1 46.0936 17.0147 37.5534
1 6.45224 30.4278 15.7855
1 30.5907 35.8547 12.3527
1 27.0609 13.4417 43.5462
1 2.25314 15.6939 20.9825
1 30.6402 14.5498 42.7024
1 11.3953 33.8854 20.642
1 22.5879 41.1095 34.0322
1 23.6012 14.5121 40.6793
1 19.2578 36.6789 2.05909
1 40.931 20.5654 46.7554
1 32.6448 23.1611 37.1953
1 9.47491 12.7352 0.246114
1 5.40608 41.9476 27.1403
1 19.9672 5.09004 26.0008
1 44.4088 45.2647 23.4631
1 39.985 13.1027 17.7116
1 9.16039 44.0825 6.38925
1 34.536 11.143 19.6201
1 48.5057 45.1279 15.0928
1 16.4893 12.6542 48.459
1 12.5365 36.0727 17.2555
1 17.6076 30.8087 12.4141
1 43.215 3.3525 42.8677
1 4.76555 27.8544 0.382144
1 38.8416 4.71819 23.3406
1 40.5237 28.7059 15.3745
1 41.6786 28.5477 26.1143
1 2.03615 42.8359 44.4733
1 33.6295 3.14866 45.4931
1 9.05422 0.135427 6.36778
1 5.36011 33.8706 18.8631
1 37.0657 1.31974 40.6095
1 35.9315 3.10709 44.0476
1 19.4644 33.5933 25.47
1 45.3917 41.8204 14.2845
1 22.0869 6.08618 17.1365
1 5.82734 49.352 42.8132
1 38.7018 39.0211 24.659
1 21.8777 16.9703 31.0138
1 13.4452 12.2953 2.41011
1 20.098 5.3095 41.0814
1 39.5457 35.6548 2.19702
1 43.5921 32.6496 37.3123
1 39.0298 43.8906 29.4306
1 32.2656 6.62078 24.7757
1 33.821 40.0122 37.8311
1 0.20862 11.3524 36.6373
1 40.0379 7.37115 36.2267
1 45.5884 20.2076 5.53327
1 48.4992 36.4861 27.3787
1 41.6821 11.2714 31.5595
1 8.22963 1.89355 29.5639
1 40.7306 15.7528 39.4428
1 13.2411 32.241 19.3325
1 0.737706 12.7957 40.7294
1 19.2788 28.0412 21.9352
1 5.18784 40.1863 24.8804
1 38.4016 10.334 44.3437
1 37.7396 31.3536 44.8418
1 28.341 5.22719 37.3078
1 10.9575 21.3397 13.0211
1 26.2814 22.788 19.85
1 43.3704 12.2469 43.7423
1 47.9617 38.2907 13.9629
1 15.5017 9.4328 18.4816
1 26.9229 7.00911 6.03267
1 48.5837 32.3214 5.20618
1 18.5304 47.0635 44.7853
1 25.6646 22.9673 26.5091
1 20.022 36.5869 19.4485
1 23.575 23.5354 41.6808
1 24.6133 14.117 16.3984
1 40.7775 49.513 10.1085
1 38.778 24.4509 29.9053
1 20.6385 31.303 24.6669
1 38.4775 6.57902 37.8425
1 36.2082 30.1962 40.3827
1 17.9116 30.265 49.2166
1 36.2152 18.0104 4.15657
1 12.6123 17.8603 21.0616
1 30.6124 27.0611 24.6492
1 39.0251 34.7375 26.1528
1 46.5036 45.1433 48.5143
1 3.06036 16.2135 1.22501
1 47.702 30.6441 3.3043
1 20.2117 12.6134 3.87684
1 47.3788 47.0953 24.8598
1 22.7528 42.1319 15.1357
1 43.5582 36.9852 5.51144
1 28.1647 29.8063 31.871
1 4.85506 11.908 47.6714
1 6.77665 32.9877 16.3781
1 6.64394 31.8711 29.8082
1 27.0454 28.2731 16.2183
1 14.1972 31.2794 47.4076
1 10.5843 27.2502 25.1698
1 22.0312 0.611512 24.3189
1 5.6635 41.5125 5.80169
1 25.942 42.514 42.1331
1 12.2543 48.1385 47.7481
1 19.0794 21.9459 6.52336
1 38.1008 35.974 30.5583
1 29.5976 30.26 48.3961
1 44.0086 48.3829 32.059
1 32.0672 10.5423 18.2934
1 21.8339 18.137 17.4078
1 15.9226 30.6357 41.2055
1 38.3271 38.8573 44.6016
1 27.5143 33.2249 10.3104
1 38.3634 14.0819 29.8765
1 13.0499 7.98955 15.1907
1 31.0623 31.4601 30.7036
1 39.7127 2.23451 39.8039
1 17.1968 20.8204 43.0367
1 10.3179 3.97757 45.6314
1 9.83491 11.0128 23.3769
1 34.7317 26.7757 22.6305
1 20.941 0.838978 45.2343
1 21.0117 49.6861 4.50424
1 31.2695 27.6111 18.8784
1 15.1237 17.6187 28.1015
1 31.8155 40.6623 16.6609
1 8.18148 34.9977 20.4937
1 15.7679 14.0162 29.3605
1 5.30662 3.13823 5.35975
1 10.8927 16.8517 48.934
1 10.6523 47.6596 9.16006
1 41.4242 49.5342 31.5956
1 14.7706 35.1036 24.1335
1 35.9601 6.96004 30.7588
1 1.63269 46.5165 6.06973
1 2.74115 30.986 22.8223
1 26.169 33.3978 32.1838
1 5.768 5.80707 30.1746
1 2.08693 42.7253 16.6097
1 35.8235 6.10148 8.06874
1 14.0435 30.3285 33.4031
1 18.4948 15.1594 3.89484
1 31.8346 0.949262 34.8046
1 7.22307 26.9508 45.4072
1 13.7818 28.2424 15.9418
1 11.5561 46.5118 6.74562
1 14.6124 26.2813 33.9372
1 45.6509 1.37802 26.669
1 12.3192 32.114 43.4578
1 30.3324 38.6748 12.5454
1 25.3539 45.0797 40.955
1 46.312 44.2751 13.8172
1 15.2804 42.5005 36.6238
1 31.0786 20.7654 36.5164
1 5.79777 25.3262 37.021
1 49.2288 3.49301 41.8963
1 37.2764 23.7852 19.881
1 27.2831 46.6824 32.7455
1 32.2544 33.7268 33.2697
1 7.3424 6.90702 6.89176
1 22.6384 36.3684 14.3962
1 24.1725 5.01463 26.8667
1 9.7869 35.2827 17.4395
1 5.1956 0.93039 36.7575
1 5.64582 11.3574 24.0965
1 41.6669 48.6189 45.0538
1 32.3571 20.1345 31.1855
1 2.42896 37.8927 33.1627
1 26.941 21.2363 16.5954
1 5.25116 38.4295 29.5029
1 12.3801 20.8915 6.23572
1 39.165 36.7569 48.1001
1 35.1389 33.4516 36.0713
1 42.5712 40.5767 23.356
1 19.2935 20.7361 27.9237
1 38.3497 1.52311 29.3381
1 1.57369 28.9456 19.0644
1 34.4697 21.0392 23.5336
1 30.2679 36.3704 32.4776
1 48.6665 29.6872 22.2451
1 47.0647 41.7738 39.4672
1 49.7642 5.88379 20.5101
1 0.42356 43.2795 25.9184
1 22.0964 40.8535 38.5631
1 18.2751 44.1225 41.8053
1 7.68364 21.7991 13.9348
1 17.6104 3.24622 42.5687
1 12.768 20.9492 10.7677
1 41.6606 17.5976 49.5364
1 40.9375 6.6588 31.4525
1 21.2284 43.7473 25.4277
1 23.3851 48.798 48.7466
1 15.6211 25.6188 25.3379
1 0.670381 6.14185 38.0096
1 19.6848 46.2103 15.8804
1 28.8758 41.1074 21.7973
1 10.7679 13.2582 23.6278
1 7.32694 45.4224 20.4601
1 24.0328 13.7854 20.57
1 16.7201 30.3116 34.0586
1 32.2717 21.8179 22.1619
1 39.2005 46.1468 35.0265
1 32.0412 39.83 23.835
1 37.9779 36.8048 34.7734
1 45.8774 27.5993 2.5541
1 2.40105 43.3981 28.7372
1 14.0442 5.83297 48.656
1 8.78649 29.9443 44.6938
1 41.9167 46.9198 10.4939
1 2.29871 14.8583 4.52842
1 38.1231 14.812 26.2201
1 23.7494 0.171427 28.593
1 20.8395 23.8882 42.2179
1 45.0568 40.1843 9.36406
1 33.923 15.9832 9.15839
1 19.9287 2.1391 23.8063
1 13.3091 32.9671 22.6853
1 21.7425 15.2462 37.3705
1 12.0129 39.4016 30.0311
1 29.7434 45.3234 33.1504
1 48.277 5.39907 11.2419
1 4.97454 18.1699 13.5867
1 42.2151 9.55989 14.6634
1 34.0566 47.8032 8.09668
1 39.669 32.8837 34.7548
1 24.394 34.6959 20.8355
1 7.82514 32.0053 27.2389