4096
 Atoms. Timestep: 16540
1 39.5268 30.7479 4.05506
1 17.4007 4.81564 32.0724
1 17.262 6.61613 26.935
1 40.1861 34.4953 3.52374
1 48.8032 22.7335 5.77421
1 35.4632 14.1216 37.9363
1 21.0446 31.3794 10.6668
1 14.2234 3.52246 16.2328
1 43.4707 34.6733 31.2883
1 15.3286 13.4581 17.6636
1 45.6611 43.3094 32.6264
1 34.6687 27.0056 8.65644
1 25.387 30.6668 17.2772
1 44.6649 28.3631 34.6607
1 23.3094 8.22454 7.63862
1 43.7583 46.7081 7.58467
1 5.11331 20.0117 41.7093
1 3.50856 19.3684 0.627279
1 17.6653 34.0289 14.9095
1 20.9799 42.1787 42.4561
1 17.5605 32.5676 12.7672
1 29.2129 6.21277 30.7465
1 14.0651 48.8235 1.60665
1 22.9893 41.5245 15.3278
1 27.5358 21.8339 20.3454
1 5.65646 13.958 16.287
1 19.069 33.1876 30.0036
1 42.1481 26.8483 24.7773
1 45.3405 13.3444 22.0694
1 42.7911 45.236 27.2038
1 15.1411 5.40219 48.2821
1 33.3873 5.3468 27.7201
1 29.4096 39.7814 3.28009
1 7.41874 13.304 13.668
1 7.7298 33.031 26.1989
1 20.3437 28.2611 49.5878
1 20.7364 24.8263 2.57211
1 32.8158 36.265 28.561
1 28.7559 4.02749 2.94893
1 21.6503 21.3661 9.65585
1 16.438 0.655247 33.2075
1 39.4266 46.8945 38.9238
1 37.922 20.2623 23.0013
1 36.6885 33.2796 4.84355
1 14.3783 1.26607 12.0481
1 29.0543 13.339 7.86648
1 13.3076 15.1989 45.5114
1 1.86489 44.0494 29.4289
1 7.40373 39.3569 27.2794
1 16.5739 10.9565 36.1045
1 48.3401 29.7339 12.1899
1 24.4161 3.93428 48.159
1 45.2967 13.87 39.0656
1 29.4716 24.3892 29.2849
1 1.26104 21.2776 12.7987
1 12.8423 38.2296 46.778
1 40.7436 16.5136 42.1205
1 49.1152 8.21953 22.3206
1 10.3441 35.3552 9.5281
1 12.9449 47.2317 22.7518
1 22.0713 31.1458 32.8087
1 15.346 21.7727 32.7146
1 12.3216 35.5245 39.1979
1 3.28436 41.8026 37.6435
1 21.1838 47.9497 9.05319
1 35.2485 30.2963 10.7293
1 0.781209 19.426 34.3064
1 13.057 21.208 31.1772
1 9.99035 40.2334 1.18128
1 21.7525 7.52178 4.7364
1 14.6738 22.5057 18.4783
1 36.7376 41.5303 6.25722
1 46.8314 41.0529 7.11226
1 37.269 0.310972 3.9484
1 25.0339 36.5903 39.7026
1 45.5564 33.2292 6.58272
1 5.02031 22.4792 23.5481
1 7.09277 46.8279 37.3471
1 32.4622 14.6085 24.415
1 36.8151 45.774 10.6667
1 35.6602 16.8951 34.0487
1 4.52078 10.2068 26.5199
1 5.76593 16.852 23.7898
1 46.9987 16.8553 9.87147
1 14.0272 28.4999 9.66932
1 29.6617 13.2874 13.4209
1 36.0569 3.69547 2.17157
1 46.638 15.2306 7.37735
1 40.94 41.9097 45.6106
1 9.01124 18.595 24.2136
1 42.7588 16.3962 36.2324
1 19.1788 2.36162 7.2431
1 43.927 30.7132 21.6753
1 2.07428 34.4068 8.87264
1 18.3841 39.326 2.94159
1 20.4817 6.69837 10.517
1 2.73901 17.9857 24.4813
1 12.416 12.0086 33.998
1 33.5672 16.5956 38.0701
1 27.7168 21.881 36.9436
1 22.5689 5.05158 13.6752
1 30.0567 9.02991 36.9327
1 18.5864 14.9073 26.3297
1 43.9347 48.2327 33.8385
1 27.1004 32.3144 38.7764
1 21.2682 25.3863 7.07935
1 0.527173 1.39765 32.7994
1 12.8782 45.8081 36.5167
1 46.6426 27.3633 26.6728
1 11.9609 21.7941 17.82
1 40.9186 39.1533 46.9153
1 27.9512 25.8316 13.3006
1 34.3197 48.0373 45.3978
1 49.0785 5.10465 15.8895
1 15.9805 15.533 18.5301
1 2.51702 30.0141 11.3977
1 5.75122 47.7177 22.4806
1 37.4333 19.7216 8.00538
1 11.6644 30.0537 23.7933
1 17.4656 7.50342 32.9509
1 15.3242 35.6368 26.1184
1 15.1857 48.3418 23.6179
1 46.3189 26.6231 49.164
1 26.3308 11.1212 26.1536
1 46.4374 44.8126 34.4471
1 38.0701 28.5438 19.6214
1 1.86113 19.7941 22.6545
1 48.4882 10.794 40.3914
1 20.884 11.1463 3.32274
1 20.2369 34.8388 19.7983
1 44.7746 11.319 37.6923
1 29.2752 9.98858 6.07089
1 8.44866 30.7422 45.6168
1 45.3288 5.58707 15.6644
1 8.40971 37.3646 41.6316
1 9.3447 39.5287 11.4863
1 13.0914 41.6681 6.01225
1 45.1236 23.7921 45.3244
1 47.3695 42.0041 12.4702
1 32.4408 46.7453 46.7636
1 16.9041 26.8014 2.56476
1 25.0745 19.4998 14.929
1 40.6079 18.0058 30.2447
1 32.8412 31.1533 2.06023
1 43.1565 18.5928 49.0672
1 17.2641 0.221502 40.2162
1 28.5045 42.8848 8.20164
1 1.62227 46.0761 39.234
1 24.2178 21.1701 39.0788
1 23.2709 15.5456 7.65402
1 11.5229 6.56264 20.2578
1 3.73883 35.9772 5.27932
1 7.69839 35.5226 11.0792
1 24.909 42.6587 42.2542
1 49.7283 24.7038 32.4499
1 3.28688 7.16668 43.605
1 21.2438 13.8817 48.9753
1 15.5985 41.4965 8.95328
1 13.1121 39.2487 22.556
1 29.5028 26.9776 30.2005
1 47.9393 7.15955 9.80293
1 39.7616 44.7243 21.7755
1 37.6919 40.9196 18.449
1 19.9366 12.3813 44.78
1 20.9266 17.3675 7.06609
1 37.9349 7.9247 41.31
1 37.9877 1.73346 16.7498
1 47.5483 9.85103 29.4183
1 42.8981 9.17772 5.34153
1 24.2827 36.7706 18.2558
1 26.5408 34.6243 42.5466
1 28.6497 2.85799 12.8112
1 2.60024 11.1034 22.171
1 33.1408 14.258 16.6729
1 7.71367 18.9112 49.1393
1 43.0289 34.4247 10.3364
1 45.995 34.5896 16.6319
1 45.5169 38.5526 36.2443
1 25.2785 36.218 13.9448
1 19.2826 3.85859 16.3875
1 31.7576 4.93341 30.3458
1 46.4661 16.7971 27.5327
1 8.95886 5.35732 10.8784
1 43.7158 9.13251 11.4728
1 41.7463 11.3607 23.7227
1 38.0301 44.8979 12.7009
1 46.8652 40.9125 42.7246
1 18.7109 35.482 43.6224
1 23.8839 10.3054 0.191211
1 18.1639 46.0271 49.6351
1 7.60207 9.27612 9.64024
1 38.8261 14.0701 32.451
1 46.0041 30.2012 31.871
1 41.8687 37.0091 32.2273
1 19.8466 30.7068 31.1458
1 13.2961 3.24771 32.2506
1 4.51541 17.4447 29.9361
1 43.9759 9.8904 17.612
1 15.7492 8.58702 0.875185
1 38.4682 41.3239 4.34423
1 41.445 27.6071 49.5539
1 38.6997 11.5848 35.8956
1 43.6498 37.705 29.8018
1 36.5976 21.0831 13.2871
1 37.4433 27.6202 14.2613
1 4.8215 30.3267 17.7193
1 12.3861 20.4526 15.4089
1 39.8606 6.81051 46.9128
1 13.7193 42.3237 0.0266409
1 13.0756 27.2288 0.547077
1 17.3557 19.0887 23.9718
1 14.3065 46.3989 46.7157
1 42.3507 18.0014 43.8694
1 45.9007 36.8707 5.93351
1 11.9693 41.9438 45.0228
1 8.93799 38.9374 34.5746
1 4.93828 28.9653 11.4884
1 16.8481 8.24403 6.37332
1 28.9984 7.77698 8.55692
1 17.0531 31.6133 47.3273
1 47.2303 31.9271 4.65295
1 23.638 22.1477 11.0972
1 40.1421 37.3715 12.0588
1 8.13114 1.76719 20.4465
1 3.43741 0.809744 39.3401
1 9.83663 9.62004 33.6424
1 3.77717 8.7748 16.0237
1 30.9675 27.921 5.51364
1 32.4296 9.0288 25.3386
1 21.2882 11.6865 9.12287
1 30.0071 6.78871 33.9414
1 33.1371 14.5722 0.661273
1 9.2035 48.9252 40.7582
1 25.3083 25.3313 23.837
1 23.3003 28.8436 32.8003
1 3.32936 41.6764 40.2694
1 38.4456 30.4293 6.56394
1 10.8351 -0.132096 47.5029
1 36.2297 42.4273 30.5795
1 13.2112 15.0187 15.7933
1 29.8097 8.00791 40.1828
1 14.3846 44.0341 26.8276
1 42.4865 7.75328 18.4915
1 11.6356 41.0694 8.47176
1 5.57597 43.5808 40.5947
1 36.9831 18.2684 25.3534
1 35.2611 12.9401 44.6453
1 44.5024 16.9643 42.2496
1 36.592 8.57234 17.4846
1 16.7791 48.1763 10.4475
1 19.9954 41.222 18.4639
1 34.7895 6.20213 5.11547
1 9.67723 37.5532 30.8664
1 20.3247 40.0478 0.525487
1 44.0707 48.6432 11.9554
1 41.8575 22.7701 34.0848
1 18.2161 17.1731 7.53059
1 43.9603 28.3066 43.5364
1 8.4543 4.34866 39.0635
1 14.8772 10.939 10.3183
1 38.9732 1.99076 12.6252
1 28.2949 27.5113 19.1591
1 28.8904 27.0441 22.99
1 37.2395 35.1132 44.9277
1 35.201 14.0575 49.0399
1 31.4538 12.3157 48.6668
1 28.1894 35.8516 44.1738
1 17.3819 4.04643 12.498
1 35.0498 6.20589 47.8885
1 37.3752 31.8108 26.6658
1 23.6337 20.65 32.415
1 3.61912 15.9298 19.8094
1 44.7076 37.0735 1.39661
1 15.7431 3.37319 33.7263
1 11.0892 11.6438 18.9427
1 8.8785 45.4447 8.0171
1 1.96108 6.27234 19.7496
1 3.06799 42.7793 10.3559
1 36.0992 15.9575 12.8039
1 36.846 25.6511 29.0111
1 11.1164 8.74947 28.8282
1 10.1391 5.35098 49.4769
1 34.0247 17.45 31.441
1 21.7317 38.7107 8.94174
1 39.4308 1.4164 38.0722
1 21.8667 37.6203 35.8769
1 20.9477 16.6563 25.4301
1 24.5181 41.6377 45.3005
1 15.4534 34.2388 37.2244
1 22.6722 38.9054 21.3909
1 48.6446 2.22998 13.8593
1 23.541 8.6705 38.3637
1 22.6664 22.0603 13.6084
1 18.2412 7.15934 35.9114
1 11.3691 27.4058 39.6023
1 12.9505 26.9712 45.5598
1 48.58 22.9827 2.59295
1 25.7965 26.062 33.9115
1 41.6897 36.4525 34.8287
1 17.5721 9.4722 18.3449
1 12.7258 23.9501 31.8875
1 40.7932 2.21976 19.6827
1 46.9477 5.6269 47.9073
1 4.59455 5.8829 28.6095
1 11.0362 21.6381 10.3341
1 7.66661 12.0286 21.4162
1 28.4044 38.5457 48.2551
1 4.43567 37.4086 21.9447
1 41.6824 11.0353 10.7135
1 41.9795 43.5641 6.22487
1 19.2865 21.9215 31.9787
1 44.9591 25.072 35.2216
1 6.96255 23.9761 1.93515
1 24.3514 10.8944 7.94918
1 45.9562 45.4121 22.3929
1 46.7171 33.1657 2.1656
1 35.5943 42.6244 35.0623
1 14.6737 41.9379 44.2749
1 17.0739 47.1072 33.1124
1 46.8237 3.55412 17.2905
1 26.4565 39.1122 36.4937
1 5.93718 43.1819 22.8486
1 4.20342 9.15076 49.0787
1 17.6685 15.2968 43.2932
1 21.9664 17.5449 46.8453
1 24.0727 25.4602 45.1461
1 10.5349 7.57216 24.0833
1 3.5892 29.6153 25.863
1 20.9991 44.2446 29.2449
1 30.1417 20.6716 27.7971
1 40.1683 18.8379 19.4432
1 33.8082 5.66991 25.129
1 49.5364 4.16361 44.5887
1 32.9756 33.454 25.0435
1 4.4721 8.0512 12.9472
1 38.1456 8.08906 33.1609
1 45.2237 41.6793 44.9759
1 18.5934 38.7607 5.88804
1 27.3294 26.0602 17.1415
1 30.7713 19.1456 25.0896
1 14.8985 4.60602 9.30424
1 28.5754 29.4179 35.9632
1 44.2552 3.0558 42.3055
1 36.1422 19.657 41.9378
1 22.9282 39.2818 3.1084
1 31.0823 22.9074 35.1792
1 30.037 2.72199 16.9503
1 23.7062 48.9962 43.1978
1 24.8629 26.2684 38.3339
1 45.2146 45.146 9.46268
1 47.3368 41.4715 22.4637
1 39.7358 28.4536 42.4084
1 20.385 19.3299 37.7088
1 33.4124 48.1419 1.38844
1 4.57474 48.7306 33.3822
1 47.7467 1.6784 36.7368
1 46.2939 26.1923 13.3343
1 37.3266 14.615 34.4784
1 26.6527 41.009 20.1962
1 36.6412 41.1084 27.1416
1 28.029 31.2117 30.6795
1 22.0742 35.1926 12.6014
1 35.3226 46.1571 28.6044
1 17.7097 22.8849 39.4071
1 9.81895 0.500823 15.9245
1 43.0911 4.11599 0.20557
1 48.9324 23.1088 15.6262
1 48.0965 0.645113 40.0239
1 20.2083 18.0161 29.7483
1 1.30024 41.4085 33.7484
1 17.5147 7.38924 46.5058
1 46.6879 0.156041 15.5775
1 1.02156 4.61491 2.64385
1 29.3098 31.6852 37.2033
1 39.1035 6.69994 3.76085
1 41.5556 41.7865 17.4429
1 2.25782 38.8025 48.8835
1 38.3767 42.8596 0.195195
1 27.4866 44.5751 18.327
1 30.0305 11.4165 34.6432
1 9.66501 18.1504 35.6985
1 2.61096 14.3185 15.7075
1 27.8559 29.3949 23.5518
1 15.5195 4.84451 6.4256
1 17.7592 19.7765 42.0381
1 2.24903 14.5488 36.0213
1 7.39685 29.0784 7.62019
1 22.9814 8.33227 30.8428
1 47.6748 20.4 40.0641
1 46.3122 19.846 23.8596
1 31.0773 33.7556 41.9692
1 30.533 11.1341 20.7404
1 27.0115 30.7105 48.2346
1 15.9581 35.9151 14.7373
1 35.8276 11.7619 30.0146
1 32.9777 5.90227 18.3317
1 47.2796 47.1965 24.0656
1 47.6616 13.8465 0.523248
1 33.4674 24.0045 13.8949
1 33.7545 41.3519 17.6645
1 23.8718 11.4828 42.3448
1 5.9912 11.4968 9.37829
1 40.4191 9.42547 32.6243
1 37.7279 37.9464 2.99673
1 9.51763 25.3222 42.5911
1 0.778415 37.7312 15.6482
1 22.5856 9.23231 35.7535
1 0.392956 41.057 28.0983
1 29.7439 2.57073 33.3998
1 31.2706 44.0546 45.4329
1 17.9501 41.8663 26.036
1 8.09611 5.61456 15.4153
1 22.4301 22.6749 17.8641
1 6.26306 34.145 34.9596
1 49.5842 36.5647 34.0713
1 43.1706 36.6638 3.63815
1 12.088 17.617 15.2546
1 28.4075 14.6757 22.9676
1 39.154 38.0768 18.5137
1 29.304 15.5774 33.2748
1 4.55103 43.2655 13.9033
1 4.85447 30.9444 38.005
1 43.664 43.4638 20.5072
1 20.7601 28.3256 38.9
1 24.0141 49.0148 17.5053
1 17.6558 25.8637 36.7131
1 6.5611 35.3906 21.2667
1 48.5209 45.6193 44.9587
1 23.7323 30.386 40.2912
1 13.2245 18.3092 33.6711
1 27.3964 7.32095 39.6104
1 8.21117 18.6593 42.6537
1 4.47216 33.7442 41.8095
1 29.2243 33.2299 33.1099
1 12.6964 44.2968 10.7241
1 43.5799 13.5097 43.6718
1 17.0228 28.4415 26.1198
1 31.4537 49.3186 25.6173
1 41.3415 28.354 44.4813
1 14.0819 6.7407 2.22475
1 21.9877 1.0817 8.26428
1 3.37949 7.86172 26.0533
1 15.231 41.7157 25.5178
1 1.76747 42.2466 23.1021
1 10.9447 6.79668 45.6923
1 0.226383 13.8817 9.56063
1 11.2534 1.85556 38.8313
1 48.5906 19.0994 25.8475
1 1.76501 46.4413 46.092
1 30.17 46.8565 44.7376
1 3.23826 12.5057 26.3357
1 13.9053 47.1387 49.3828
1 45.8326 2.68909 23.6249
1 3.96652 44.8421 43.0334
1 2.58247 19.8855 27.0778
1 22.978 15.5385 20.953
1 17.8436 37.2591 48.2316
1 48.1117 38.6138 16.8487
1 9.51133 5.7614 2.31146
1 44.541 22.0468 24.5714
1 33.5278 16.0235 35.3003
1 1.78812 32.3905 12.3521
1 40.9758 30.7633 30.1644
1 10.1771 40.9946 48.3709
1 32.6766 9.8035 28.2772
1 48.7111 17.9939 28.8288
1 29.6254 33.4404 20.5533
1 2.77935 41.0427 45.3355
1 4.70621 37.5418 48.1873
1 24.4474 21.5419 26.3648
1 11.5519 19.8382 21.3078
1 24.6771 22.5862 19.9461
1 43.855 6.99296 7.99787
1 24.0755 24.8539 40.931
1 27.9978 1.39962 36.5463
1 4.05514 49.5271 6.67415
1 29.0412 13.8574 1.30215
1 41.2604 49.4774 36.2503
1 4.32042 44.6773 33.664
1 39.8248 43.2215 24.2963
1 30.0919 29.039 40.3361
1 49.0808 3.1798 34.7702
1 45.5606 40.416 4.44254
1 41.7334 17.6299 16.3481
1 42.6518 4.48895 30.3322
1 17.5011 1.98918 2.88254
1 42.9809 13.7799 15.1181
1 36.4538 28.4332 4.58495
1 4.33161 47.5281 43.5923
1 16.4051 26.1426 47.9802
1 42.9113 43.4269 23.0412
1 38.2199 19.9772 29.8842
1 46.4302 49.3549 20.2555
1 9.90805 44.5024 21.2482
1 45.5253 6.52888 1.84215
1 7.43668 16.3953 21.2198
1 34.8589 34.6561 9.03633
1 16.5068 39.0235 18.6706
1 16.9777 18.2326 44.4203
1 45.8931 8.08948 20.0301
1 20.9273 15.279 16.5541
1 21.4145 41.5111 28.1784
1 15.4092 40.0238 14.6293
1 7.19032 8.64342 45.27
1 46.3456 38.1434 14.3267
1 10.6496 23.733 3.43192
1 17.4451 27.8037 -0.00192225
1 29.126 26.5104 48.4729
1 13.6599 31.6813 14.1151
1 43.2348 31.2641 43.9915
1 20.5512 43.5439 14.5527
1 42.7066 3.44369 18.0341
1 28.5594 23.9253 47.9084
1 14.6585 7.254 25.8426
1 48.2793 15.8408 24.4649
1 31.1438 34.6073 31.6146
1 9.92754 12.9152 13.3142
1 47.8657 46.9579 39.336
1 3.02388 38.8956 43.5803
1 26.3726 46.3863 45.447
1 27.868 25.7288 20.9064
1 24.2084 1.62441 2.05512
1 10.4535 27.206 1.42141
1 24.0727 48.0138 9.69418
1 19.6444 26.9351 40.8332
1 34.7049 28.6425 22.1524
1 31.567 47.2006 5.70337
1 42.299 16.2394 21.6197
1 28.0739 30.7964 1.02689
1 12.7574 11.4702 49.556
1 44.6853 27.7142 46.1796
1 35.6955 15.3556 22.7094
1 4.22019 25.4846 20.8088
1 33.1382 10.7731 31.3034
1 47.6451 29.6395 24.6221
1 36.2674 5.56593 33.939
1 5.57661 36.1275 25.1295
1 32.2181 32.1729 14.2911
1 26.3362 43.7936 49.3124
1 6.6868 25.5678 17.6768
1 17.0553 31.3609 8.74898
1 44.3408 24.6816 21.3004
1 20.5405 27.265 22.182
1 38.1949 3.39658 28.5768
1 4.76609 29.3589 47.3033
1 42.6107 46.8952 19.5288
1 16.9619 22.4348 46.1292
1 24.019 1.48484 5.04727
1 42.0581 29.1257 26.608
1 46.5373 42.9013 28.0009
1 29.4204 6.13528 43.3864
1 30.4375 31.6708 39.9062
1 13.826 11.5877 12.8072
1 13.029 19.5683 0.407552
1 36.261 30.7215 15.3732
1 35.6348 4.12184 7.31976
1 26.5302 45.6261 37.809
1 44.4111 27.2004 40.0031
1 15.3182 8.38298 19.9451
1 28.0284 47.9338 48.6204
1 6.63618 2.01507 30.6489
1 39.625 36.9568 23.2392
1 30.6841 21.0918 46.3127
1 13.8989 34.6533 23.5457
1 20.7773 37.6444 33.3951
1 39.8458 37.1743 38.6018
1 1.87904 10.666 13.158
1 20.0501 38.7194 29.5431
1 37.6974 15.7746 38.7559
1 47.3456 24.289 0.244861
1 2.93615 15.6726 33.0435
1 11.4023 31.6741 26.1596
1 14.3897 30.0029 4.27719
1 31.9202 44.5068 30.6168
1 31.888 44.6955 17.5347
1 39.5491 10.1347 12.2911
1 16.8167 23.7512 16.8332
1 25.0357 41.7994 33.9435
1 41.5188 47.4237 30.5016
1 32.35 37.9374 37.7511
1 39.8605 12.012 38.5686
1 40.1378 8.8485 49.073
1 40.3025 23.0804 6.53144
1 19.8278 12.5384 38.6999
1 38.3502 12.0274 26.5501
1 6.37092 39.5037 5.49025
1 43.9013 33.1117 13.6123
1 8.09115 15.9855 10.339
1 28.7886 10.3755 45.8868
1 5.78192 28.3435 24.4983
1 43.018 8.89204 24.3339
1 12.6385 9.12714 35.3746
1 31.6324 25.8392 19.0005
1 6.53509 23.4738 32.1402
1 1.59254 7.48157 39.8615
1 18.3024 43.699 29.0246
1 3.18975 1.3557 19.5705
1 45.4475 9.17846 34.3022
1 5.56132 33.576 14.2709
1 10.3578 19.8214 49.1217
1 13.3669 6.95896 33.9867
1 41.3617 32.7354 31.7686
1 13.1963 6.76631 5.63963
1 17.5681 36.2006 22.0303
1 7.17825 47.9442 15.0874
1 38.8527 45.5659 5.30353
1 24.7784 39.2041 12.5701
1 10.6765 38.1042 43.0253
1 32.69 30.3611 11.9314
1 37.9451 39.1462 32.827
1 33.1874 2.05616 40.3152
1 1.64383 18.7986 7.11341
1 41.4309 47.6775 12.3503
1 7.19896 16.1539 42.3487
1 12.0853 34.5607 49.508
1 34.8712 32.8455 15.1095
1 6.34902 38.6979 3.09301
1 4.09826 23.2547 35.4097
1 29.7255 8.88969 42.8166
1 1.1657 23.9039 13.8413
1 3.1021 11.3631 41.5484
1 11.5479 23.3001 35.3551
1 3.02377 2.86892 44.6599
1 27.6276 21.4372 22.9395
1 38.9652 45.7528 0.327707
1 8.33421 45.4914 49.2018
1 28.3151 44.2982 40.3582
1 18.2797 24.5187 2.65526
1 24.546 3.86112 6.9387
1 20.4946 35.1883 31.9918
1 48.3266 7.47827 2.5065
1 28.0282 5.75156 47.7721
1 33.098 43.6114 33.2011
1 17.0967 3.02208 14.6274
1 37.5193 1.63032 31.7783
1 32.1519 42.8946 20.9459
1 13.9795 39.0222 12.1788
1 32.3481 48.8857 43.8337
1 16.8052 2.2468 5.48787
1 28.248 44.4515 44.3719
1 0.981539 40.9538 2.64347
1 37.3125 6.00883 27.5126
1 42.3777 24.2562 31.5531
1 24.3748 46.6743 23.7842
1 32.7719 27.4135 27.2593
1 49.4746 31.0337 26.7941
1 10.2383 25.0925 5.89796
1 32.1678 37.7596 1.15111
1 7.28836 6.49576 28.4738
1 1.78401 36.3608 38.4757
1 2.87385 39.4 28.7139
1 47.1537 0.331195 48.4014
1 16.9502 31.0061 38.8227
1 27.7454 39.8642 15.8687
1 41.6734 10.1037 3.08801
1 20.1518 32.5831 5.74243
1 26.4665 45.5147 2.14177
1 47.8382 48.3202 35.924
1 31.3284 36.5585 22.4664
1 8.46803 2.29692 0.712052
1 42.5583 20.5785 5.71975
1 39.8773 26.5259 34.5541
1 20.953 42.8519 46.6792
1 7.9311 46.752 12.7608
1 18.4321 20.2075 1.23876
1 32.8563 9.82934 48.8287
1 25.2511 20.4839 2.58387
1 25.8964 34.355 5.69117
1 13.0583 2.45293 14.0509
1 5.71822 30.3255 45.1749
1 38.6249 30.8378 43.1761
1 32.3956 5.61373 33.1253
1 17.6079 12.5359 33.0877
1 6.97684 10.6366 33.3927
1 5.03238 32.3144 23.1908
1 11.3986 35.9411 12.3403
1 8.60399 42.5057 22.736
1 33.1554 22.0419 17.3416
1 10.7673 31.5313 6.76766
1 36.2489 48.1498 1.78018
1 25.756 13.3107 19.1882
1 20.116 7.86135 19.5909
1 35.3615 22.4813 45.3482
1 2.34651 36.1984 27.9805
1 0.818097 12.0917 27.164
1 33.4058 37.9453 14.9986
1 32.77 18.7248 6.98882
1 21.8629 26.0603 20.4
1 49.4591 11.5337 14.9045
1 32.6216 13.4546 32.5931
1 43.0536 19.2101 29.4506
1 27.8768 20.0483 11.5973
1 2.57183 49.6194 24.4632
1 22.047 8.82646 45.7805
1 33.7104 44.8407 36.9142
1 12.6987 45.332 8.08869
1 9.71802 29.4854 21.8255
1 10.4557 38.8819 36.9406
1 13.4893 27.6726 23.9508
1 40.2092 2.98749 22.1523
1 8.91285 31.7381 0.495932
1 35.163 12.6578 22.5467
1 27.5864 36.254 4.90776
1 14.8007 43.2305 7.1509
1 29.9005 37.1644 31.6919
1 45.459 21.9964 9.00782
1 25.5154 18.0609 23.7446
1 35.2973 5.39412 37.5518
1 41.7936 43.0575 47.9161
1 12.5176 36.136 26.8715
1 19.039 24.3692 9.95939
1 19.5925 37.7672 43.883
1 3.22297 29.4732 6.50276
1 27.2291 28.1045 27.1159
1 3.94405 5.94708 39.3985
1 34.3788 12.8143 40.3539
1 45.6341 20.238 12.3215
1 22.4827 2.478 18.772
1 47.8057 4.50532 3.79785
1 12.8619 2.93121 21.9999
1 39.4612 7.31495 12.373
1 27.3589 5.42767 26.8435
1 10.5552 3.6902 20.535
1 13.3965 27.7609 5.36842
1 28.0007 18.399 26.6923
1 15.3092 38.0977 39.477
1 27.0227 34.3287 19.3187
1 10.4662 41.9191 14.5747
1 41.3276 24.4507 25.7687
1 8.14846 34.73 42.5755
1 39.3149 35.1874 5.9423
1 12.9401 5.18207 0.189319
1 3.43676 21.1547 10.9837
1 32.2275 25.0459 33.8849
1 15.8791 29.7366 45.5445
1 27.2754 0.965963 24.8967
1 17.8221 4.81227 25.2319
1 41.825 31.8723 34.2081
1 48.0319 11.9705 10.9964
1 48.4556 33.596 13.4585
1 0.696269 23.5505 38.7282
1 32.6133 33.6481 8.68127
1 31.6473 21.9921 23.4659
1 16.6404 40.1711 31.5593
1 39.7034 5.64305 19.6887
1 48.2315 6.71937 13.3294
1 25.5587 41.123 14.476
1 26.1989 39.1669 26.497
1 45.0132 46.1332 38.9238
1 15.0556 39.6622 42.6507
1 25.3978 47.7792 5.71226
1 28.5425 40.7926 18.2609
1 46.0176 34.1876 34.1009
1 25.234 13.1145 30.2459
1 0.995168 31.1652 21.3512
1 16.0616 2.87872 48.1962
1 28.9564 46.747 36.9247
1 6.4506 21.9222 38.232
1 17.3035 42.4077 4.53129
1 48.5594 33.373 37.0849
1 41.097 25.7129 44.3743
1 39.0556 11.9934 19.7689
1 13.4946 29.664 45.3201
1 49.6726 27.4698 5.51845
1 34.5784 45.3812 26.2218
1 10.8725 48.7871 6.14624
1 8.35313 25.5137 10.7291
1 38.0453 35.1592 42.2247
1 46.8979 18.469 31.6084
1 39.9811 5.48473 37.0729
1 41.8103 6.34788 5.44118
1 31.2884 32.3194 10.7772
1 22.2433 38.9732 31.5286
1 2.19048 13.7594 18.5308
1 9.04976 12.8806 6.19883
1 49.1281 9.40445 42.833
1 24.6114 42.1319 5.46061
1 0.249304 41.0354 40.0026
1 35.4122 17.4634 16.5681
1 26.9473 28.029 47.3644
1 36.6089 38.2702 10.3723
1 43.9342 47.7878 5.18765
1 18.9924 34.6264 41.0091
1 22.7134 2.40603 36.5468
1 23.0865 33.4162 44.1901
1 22.255 29.7331 12.9359
1 35.8085 28.1226 44.0945
1 30.48 26.8378 33.2698
1 7.16573 39.4414 39.8922
1 26.2976 48.9496 44.7354
1 44.9152 44.519 36.7032
1 21.6448 43.8185 31.7592
1 49.5734 6.89103 26.1347
1 4.55565 10.2714 30.3778
1 47.1195 28.5197 45.0642
1 43.5232 46.3273 45.1784
1 14.104 21.8324 13.4513
1 19.3146 27.2966 26.7235
1 10.5151 13.1224 35.2703
1 2.52868 23.6864 47.2753
1 48.2646 20.8889 30.802
1 11.6359 19.8328 35.3456
1 34.0333 7.39616 43.5832
1 37.4119 11.3729 21.9014
1 27.2492 9.10283 37.3549
1 15.0102 15.6802 2.89228
1 4.98451 4.13734 12.2009
1 39.7756 23.4622 4.0578
1 0.809293 42.2671 42.7011
1 27.5266 46.4758 6.58665
1 44.4238 21.4394 18.9928
1 17.6231 19.4854 3.62446
1 5.2746 12.8941 34.0787
1 39.2138 2.5901 0.0218698
1 47.2954 29.3247 19.5318
1 23.2553 22.974 31.2496
1 36.7218 10.6092 33.332
1 46.3356 46.1756 4.49389
1 37.9104 33.5935 11.9551
1 19.0279 33.3143 17.4474
1 29.1645 39.0683 8.05509
1 9.20955 17.8832 31.0176
1 47.3219 48.3426 30.9721
1 19.0374 3.88065 29.2531
1 49.2446 10.7902 21.3549
1 6.52077 17.411 27.9232
1 0.433232 12.1952 49.4665
1 21.2088 -0.0257921 48.4195
1 8.74121 1.44315 13.6149
1 43.9991 35.8214 39.1231
1 39.7767 17.6851 34.8598
1 22.9151 2.35928 14.3771
1 7.04509 12.9468 29.5764
1 14.4897 16.9137 37.2457
1 9.95244 29.1425 29.4662
1 13.5415 14.1741 4.52101
1 11.8466 25.7319 41.5348
1 10.2039 21.9282 30.0764
1 22.7277 4.53743 0.661208
1 13.9356 6.27777 29.3069
1 47.0567 20.8554 5.09966
1 11.0539 42.7633 33.0757
1 10.3687 26.2753 46.9307
1 4.21654 39.673 20.6214
1 5.49961 1.23273 36.0416
1 16.8306 24.7605 11.5823
1 33.8908 29.6383 35.5146
1 49.1152 40.2225 44.1613
1 16.5029 38.2925 27.5277
1 33.2749 0.620675 48.9648
1 14.106 39.6687 16.9942
1 32.387 19.2868 11.793
1 24.6701 39.3606 19.4486
1 5.94097 11.129 12.9616
1 24.6281 6.2353 6.00146
1 8.83733 49.4357 27.7627
1 25.2551 34.0643 37.9755
1 27.475 22.9405 41.2892
1 45.4584 22.5432 39.8554
1 20.3873 40.3015 7.27575
1 6.28076 29.424 42.6686
1 3.98667 4.86454 16.2664
1 16.8155 33.0703 24.3854
1 17.4332 27.4283 7.2013
1 36.4338 32.8951 9.80039
1 2.95506 39.8245 35.7951
1 27.8419 34.9056 8.4014
1 17.3402 27.2655 45.5791
1 41.2292 44.483 19.4823
1 41.1888 13.7993 11.2917
1 19.9449 12.1232 26.2333
1 0.330266 42.9378 25.2829
1 20.2277 15.4593 31.5328
1 1.82141 27.0008 35.9102
1 23.6611 44.1944 16.2407
1 3.0436 30.9887 44.3036
1 45.8242 20.2351 35.6697
1 45.9146 14.7754 34.9941
1 48.109 11.7564 17.3432
1 6.68417 42.8814 27.1864
1 44.8354 15.8661 22.2414
1 9.45665 48.6834 35.6525
1 13.0141 39.4167 40.2436
1 21.6731 4.69702 22.7509
1 7.4122 16.3116 15.4477
1 1.92683 40.0534 5.19441
1 37.4615 19.2481 2.00601
1 28.8669 0.244042 29.3782
1 10.5661 39.9373 32.5949
1 35.3115 7.442 12.9884
1 34.9155 33.7529 28.8269
1 22.1244 44.107 48.7997
1 6.80637 38.1201 11.7746
1 24.211 22.8478 2.71917
1 4.9217 33.9685 1.78186
1 34.7204 11.191 2.4217
1 19.3292 46.5682 41.1778
1 11.8907 14.5209 20.0918
1 6.50581 39.4442 48.1928
1 31.5461 32.2498 29.2964
1 22.9407 3.17031 41.2375
1 22.58 44.6541 24.698
1 9.60892 28.5255 35.2995
1 30.0727 5.07042 18.3044
1 43.7911 1.18641 13.7505
1 21.7261 40.3223 25.6949
1 7.95819 38.6712 0.772132
1 32.0206 43.7223 24.6921
1 25.3223 16.9734 32.4317
1 44.049 45.5353 41.658
1 41.8048 39.7505 30.46
1 45.0358 44.1144 5.81721
1 24.5431 6.34099 38.1023
1 5.75158 6.61052 25.3578
1 13.2155 31.246 33.3869
1 6.22731 6.62776 33.0406
1 11.084 48.467 10.4329
1 18.2953 48.8123 49.2432
1 37.2975 47.5797 24.0069
1 24.5774 5.02627 21.5914
1 48.1519 43.5806 20.6074
1 48.3103 16.806 37.6296
1 15.6395 7.07412 9.99553
1 42.1647 22.6773 17.7054
1 35.0124 8.46853 3.10241
1 36.045 22.0777 8.11567
1 13.6994 28.2615 33.5779
1 36.9504 42.8209 39.7918
1 8.64154 30.0991 41.1134
1 35.2184 2.37868 11.7139
1 27.5802 38.8432 5.52478
1 40.7511 32.4339 27.8826
1 28.1546 17.0796 12.9539
1 27.4606 14.3457 34.9813
1 42.4985 36.1205 43.1753
1 16.7624 45.4526 27.0154
1 46.7525 9.11808 17.0958
1 8.52988 12.2266 31.6137
1 11.0794 39.8251 24.1522
1 11.6735 1.08343 1.40869
1 21.5058 17.7879 21.8987
1 0.487629 9.4079 28.1329
1 7.0084 31.4116 14.9242
1 24.7305 42.9654 2.56756
1 25.8269 10.1973 45.502
1 5.9016 12.623 23.4406
1 23.0351 16.7132 39.9791
1 17.8398 43.3683 20.5858
1 22.3744 35.3348 30.2801
1 41.76 7.88543 41.7014
1 16.8827 35.8787 3.24558
1 0.894496 28.7805 15.4616
1 32.5987 20.8164 28.4088
1 7.85676 17.0977 1.72218
1 5.68363 39.7451 29.6354
1 16.5914 10.1903 13.8214
1 37.0724 41.7106 20.8878
1 41.5577 17.777 7.16117
1 0.543428 38.0613 6.5872
1 40.451 19.9802 26.9962
1 33.2973 47.7463 11.8637
1 18.6056 16.2689 39.117
1 16.5519 23.045 13.8586
1 11.4669 28.442 9.95989
1 46.0939 0.87787 44.656
1 1.57152 33.7785 4.76685
1 43.4038 4.61805 22.9718
1 38.6057 12.1644 15.009
1 36.1032 26.3759 11.3533
1 36.0315 34.9268 32.3014
1 38.9975 12.4941 47.1881
1 18.887 10.3953 23.0212
1 45.2926 40.6054 12.6077
1 37.513 48.1134 49.1497
1 1.27761 15.1497 45.8348
1 23.108 22.2947 22.5554
1 47.7097 24.7938 11.8104
1 26.6923 6.0711 18.8835
1 1.56371 0.946742 43.3119
1 38.3767 42.5518 35.1707
1 19.9179 5.46678 37.4729
1 8.82383 10.8064 47.7746
1 14.8301 16.7992 40.9298
1 34.8844 43.208 5.64049
1 7.01536 27.842 32.1732
1 33.8866 41.6863 37.0359
1 31.9352 2.1833 15.062
1 40.6972 34.268 42.0921
1 33.0258 31.9845 38.968
1 2.11544 8.99815 42.2888
1 48.1196 25.1559 25.7732
1 46.2093 39.1833 29.9412
1 42.1588 27.6048 38.5715
1 20.0375 48.5793 35.7193
1 6.84685 8.52882 2.11401
1 8.71522 24.3857 30.2981
1 49.4974 14.5967 39.0821
1 13.8034 15.6339 10.9978
1 14.7981 45.123 34.6755
1 0.760148 19.4075 46.8433
1 41.0575 20.2275 42.4675
1 46.1257 5.35906 45.2443
1 3.46622 24.494 15.2684
1 13.0555 17.7676 28.2992
1 46.0825 9.8288 39.5319
1 3.68386 41.7234 1.79442
1 13.2145 8.73228 23.6936
1 31.6446 7.29763 4.19072
1 48.6396 29.3676 47.0693
1 25.2594 8.06251 1.76323
1 18.2854 15.6797 19.616
1 10.4722 40.12 28.9205
1 21.3339 24.7359 41.3023
1 13.8237 12.2836 19.4113
1 37.4615 3.9113 10.5202
1 34.2636 18.3238 25.0064
1 23.9946 28.7057 20.6287
1 40.9815 13.8012 34.0093
1 36.2945 29.3212 34.4753
1 16.2893 30.4082 49.6038
1 33.2653 6.1595 2.05251
1 17.1301 14.1346 13.6605
1 25.7196 24.4559 27.193
1 26.2982 22.3561 14.7733
1 30.6603 48.4281 11.7995
1 8.83773 18.1778 6.4267
1 49.0029 41.775 8.90632
1 17.3559 12.1246 49.7942
1 49.7632 45.6607 24.4273
1 24.7196 39.48 5.29145
1 40.6875 39.8988 26.3227
1 20.0928 20.2727 27.3711
1 11.912 14.5408 0.315288
1 10.8667 37.6564 18.0854
1 39.1789 33.4112 35.1422
1 31.9021 28.418 24.6283
1 12.4417 30.769 47.5522
1 13.0548 24.7973 20.2502
1 23.6538 8.58864 28.1838
1 2.8736 46.6347 19.6037
1 27.9982 0.223654 40.5642
1 19.2778 48.9781 22.5492
1 18.3093 20.9936 5.99301
1 37.6713 47.815 19.5439
1 23.4703 37.4353 45.5448
1 0.899676 37.279 25.1984
1 28.941 7.04577 16.6722
1 19.2486 26.1602 18.6946
1 21.1222 27.7336 34.8298
1 31.7641 35.7135 49.1322
1 32.386 25.9511 10.0393
1 36.2708 45.7863 32.883
1 15.2264 17.338 26.2612
1 22.2696 14.284 29.6825
1 36.2126 10.3392 40.2127
1 24.7607 22.4936 41.268
1 4.62344 2.60618 4.76626
1 12.6456 47.8322 26.883
1 37.3986 17.1902 6.57737
1 34.7542 3.87 46.5978
1 20.3987 2.96018 10.9565
1 35.337 30.3381 6.40291
1 22.7735 2.97479 32.276
1 35.1274 39.4475 20.8186
1 8.74834 35.3412 25.1662
1 25.5685 48.1807 37.6205
1 44.8808 38.4758 46.0225
1 1.44874 25.5868 41.7193
1 19.3742 40.7795 15.8028
1 45.3939 8.68676 22.8782
1 16.6266 31.103 26.3726
1 45.3103 48.8538 37.7618
1 2.67773 46.7893 5.48267
1 1.21042 28.7376 30.0988
1 26.3534 29.3607 19.5013
1 3.50625 30.2339 22.6614
1 49.1574 0.208922 12.076
1 21.9442 14.5285 14.2444
1 48.2501 19.5658 18.7803
1 13.5245 16.3401 0.235231
1 39.6163 9.82083 29.5193
1 1.3668 24.3018 34.9328
1 8.84169 23.5791 16.4017
1 14.6731 0.68227 6.27635
1 23.04 28.6633 28.3592
1 45.5347 4.55671 27.8278
1 9.16263 33.7762 45.3436
1 22.0551 41.1792 10.403
1 5.18636 42.1354 45.6529
1 27.8006 39.9185 10.3164
1 13.6602 41.4831 38.956
1 17.7623 7.64867 41.1866
1 16.1371 18.9473 33.2069
1 39.94 7.80565 39.2501
1 38.4481 25.4987 24.3136
1 31.7086 1.1874 37.7921
1 33.1379 24.1381 24.208
1 9.49718 4.14245 6.24509
1 16.1976 37.7856 24.1312
1 29.3041 2.9652 30.9015
1 9.18103 31.0357 27.4
1 0.395032 48.4035 37.6937
1 42.0902 2.41406 11.9999
1 34.2692 42.1277 47.3618
1 30.7946 22.5763 30.6856
1 9.89581 25.1153 32.6637
1 30.0763 22.3295 5.92626
1 44.9841 30.4129 25.5855
1 13.0348 18.0825 7.07165
1 44.8356 46.2018 13.089
1 46.6853 39.6603 40.0238
1 36.7775 37.0847 34.2523
1 24.4189 18.6303 30.3531
1 39.9754 35.2249 30.7844
1 44.8957 28.2909 22.2259
1 40.1963 29.1612 21.4105
1 41.7141 39.6434 15.5148
1 40.0272 23.2324 20.2401
1 37.6699 48.9699 38.809
1 5.33354 3.90632 26.1883
1 8.01889 46.9251 33.9855
1 25.6327 45.801 40.9753
1 27.5672 6.75815 45.1068
1 47.0548 18.3408 13.9166
1 17.9311 45.4819 44.5603
1 47.041 24.2213 7.53803
1 45.1899 34.8782 0.093454
1 6.71656 49.4261 44.5255
1 26.8239 49.0386 20.5659
1 10.7582 44.2068 2.10139
1 20.0332 17.8302 19.3744
1 14.188 7.12217 41.9837
1 26.3334 27.1882 14.8697
1 25.5843 32.899 21.0133
1 14.0215 16.2102 20.8878
1 13.1642 47.7238 29.4148
1 20.8888 48.9416 25.14
1 13.0327 29.4182 40.7439
1 22.8127 19.7466 16.9641
1 46.6445 14.1281 47.437
1 41.1546 3.75838 28.2253
1 38.1894 33.3837 32.423
1 2.7595 18.2429 3.50204
1 40.3572 31.2157 25.5365
1 8.85893 3.4331 3.6931
1 1.26762 35.1446 43.2822
1 1.62054 48.1959 12.9234
1 13.5361 8.4811 9.20582
1 34.9711 22.1739 21.1672
1 27.0265 48.2832 31.5853
1 20.422 15.0627 37.4248
1 48.8278 1.29974 18.9164
1 29.1679 19.8588 9.07263
1 8.75421 40.1052 21.1758
1 8.59305 36.7391 27.4248
1 33.1862 26.7237 40.9075
1 16.8545 43.5429 36.3435
1 30.9506 39.7684 42.4319
1 47.4699 2.9467 6.05881
1 6.12003 33.2976 7.26004
1 41.2251 23.786 13.8845
1 31.3732 20.6466 3.9037
1 40.798 34.2512 39.393
1 15.5461 34.8169 11.0332
1 6.88001 29.3558 22.1525