4096
 Atoms. Timestep: 17500
1 8.78081 30.6598 5.85477
1 2.53287 0.798153 22.1876
1 5.03246 16.7904 23.4816
1 31.9521 35.0873 19.8913
1 45.986 48.7533 13.5831
1 0.170134 40.4569 30.6304
1 12.9129 10.9243 7.03338
1 9.57221 49.0679 31.6543
1 48.6584 41.6651 20.8421
1 12.2942 3.47366 3.23624
1 45.3151 13.007 29.8991
1 40.7915 29.5023 22.3381
1 34.3016 24.5162 20.288
1 36.9063 39.1566 24.3789
1 20.214 14.0005 5.60831
1 3.72868 36.5074 8.34341
1 10.9553 22.2206 31.4287
1 0.658567 6.01679 14.928
1 41.2336 25.9698 9.15944
1 21.6744 9.09982 38.197
1 19.7422 44.4879 47.1538
1 47.7356 6.22481 20.8911
1 28.7595 46.8509 3.81887
1 22.0712 37.6071 31.5908
1 21.5397 24.3045 29.6849
1 0.530983 33.765 22.6168
1 13.4723 44.9872 37.4629
1 33.9758 28.7759 13.2003
1 49.2091 25.2866 19.0197
1 38.571 43.3728 26.6033
1 7.39955 37.7473 7.09545
1 47.875 13.2135 33.5374
1 38.2063 32.6783 13.5033
1 7.42376 11.0954 18.7979
1 28.8212 40.6561 26.6911
1 22.8483 26.5069 4.44231
1 21.271 20.7765 0.618742
1 19.529 41.0343 41.7511
1 19.6197 43.2013 43.5289
1 45.8239 19.5526 48.5695
1 4.69077 11.0888 26.8037
1 34.6519 46.0624 9.44582
1 3.05133 7.26352 15.3103
1 37.4084 43.3207 20.6079
1 2.51695 21.8721 14.3287
1 40.4458 10.0821 11.5478
1 16.5331 12.2976 49.712
1 4.48582 7.03015 22.769
1 24.3671 31.9166 26.2063
1 8.20221 30.4812 35.8525
1 46.7308 12.6974 6.05207
1 22.2346 4.80122 39.0906
1 48.172 13.7193 8.1954
1 25.8526 23.2766 20.1803
1 30.9685 8.55489 24.4181
1 23.1554 41.7883 46.2284
1 2.99573 30.3904 23.5842
1 3.294 40.3506 25.5292
1 15.4006 27.4997 6.57206
1 7.96615 40.5587 15.0523
1 16.7842 39.8674 25.7407
1 23.9281 0.949733 28.9087
1 5.59379 2.98595 32.9506
1 5.61291 29.0905 22.863
1 2.11737 48.3165 8.83392
1 48.0047 33.4185 6.21608
1 44.4714 8.90227 45.064
1 3.09321 29.1895 31.9006
1 20.0912 37.3086 5.32227
1 31.0925 10.483 46.6099
1 32.2831 29.7028 15.2995
1 38.3396 29.7302 13.2364
1 43.8737 12.1233 47.642
1 32.2874 37.6876 43.4769
1 32.0527 38.3109 22.293
1 0.474352 18.8134 6.13441
1 9.34519 14.8743 11.4571
1 5.29124 40.4442 34.0664
1 34.1802 21.6925 16.8493
1 29.9284 26.4426 12.0926
1 31.393 6.61582 37.2794
1 8.68147 9.62734 25.8995
1 26.8155 40.4154 22.4241
1 29.4535 11.1648 18.4298
1 13.8287 26.8918 12.509
1 18.7804 27.664 10.9587
1 45.193 9.70096 40.2097
1 45.5433 19.5327 11.2589
1 43.5224 41.1407 7.05721
1 11.8685 27.2234 29.4343
1 6.80791 6.36415 1.36974
1 3.45198 5.90973 17.7186
1 21.7673 37.4368 15.5584
1 16.5968 30.399 12.3407
1 17.05 34.3245 35.3848
1 15.9432 11.399 32.1406
1 3.03435 20.5131 20.0312
1 7.12525 3.70523 35.2108
1 31.8344 10.8837 25.5629
1 27.0183 29.7066 31.3559
1 19.191 21.6354 16.2276
1 46.3126 15.091 0.67011
1 11.0782 10.2407 27.1695
1 1.248 2.41681 41.0248
1 32.9149 45.3115 39.052
1 23.1412 22.6968 7.58428
1 9.13296 42.2069 23.8338
1 47.9827 45.2828 28.4984
1 3.89871 3.69967 25.459
1 8.47696 26.4913 19.9585
1 42.1423 34.5828 5.2542
1 47.7304 29.3311 18.4448
1 31.083 43.3016 44.6583
1 32.8659 7.70897 21.4377
1 16.1941 29.3887 22.5601
1 34.54 22.5914 0.622304
1 5.74765 44.255 20.6256
1 20.7091 28.0053 8.22147
1 27.5762 34.1606 24.4463
1 3.87083 8.44028 37.4458
1 24.1215 2.74442 24.7188
1 7.17734 49.0436 30.3601
1 42.9582 16.572 48.9717
1 15.5717 12.1101 15.0821
1 4.59695 31.0418 33.6949
1 34.6226 29.5976 34.7888
1 39.9464 27.3479 23.98
1 46.5754 6.98966 38.4226
1 7.3223 23.1717 7.21672
1 24.4552 4.25317 15.2596
1 27.915 7.79688 47.1856
1 32.9923 41.1204 2.4551
1 48.2317 37.6989 39.0172
1 13.8887 6.19589 17.2609
1 8.87929 40.6702 4.18121
1 22.1031 30.1576 17.4068
1 8.85239 2.57265 14.906
1 43.2477 17.5504 45.7097
1 38.0469 36.9875 9.53876
1 32.802 47.5119 44.8439
1 18.4677 24.0558 0.0755563
1 30.1638 13.6641 17.9569
1 45.686 9.81417 27.1475
1 38.8886 25.4541 0.882505
1 33.7054 10.6307 46.9547
1 21.3552 20.9244 23.5764
1 30.0276 25.0993 20.9243
1 2.29407 39.127 0.560814
1 17.8139 21.79 36.2436
1 20.6016 11.0157 2.42805
1 22.5744 45.5208 15.6359
1 0.119599 27.0703 47.8354
1 22.2993 35.7819 8.24502
1 33.0598 21.978 31.7347
1 46.2936 19.5173 33.0401
1 10.3956 1.40858 45.1679
1 7.39011 0.526469 48.09
1 9.08004 30.5182 1.63421
1 16.2779 1.27571 42.3427
1 23.1191 22.412 19.7642
1 43.2483 1.97054 26.5425
1 43.2396 2.02267 16.1072
1 35.4621 39.098 28.5368
1 16.252 48.3877 8.26293
1 25.4282 11.6362 49.1614
1 29.1727 8.40928 30.6831
1 31.416 44.0225 25.704
1 1.14633 21.4772 41.6618
1 7.94645 7.03202 12.2154
1 35.3355 37.3712 30.9
1 32.8897 37.0493 28.1895
1 30.6257 46.5256 21.946
1 44.8387 18.5974 5.31875
1 35.9647 8.64026 45.5805
1 42.6633 18.4318 36.2227
1 9.37841 30.5717 20.2177
1 3.58433 29.8162 48.9013
1 44.9835 45.8249 38.8313
1 16.3083 26.98 30.1176
1 27.1233 2.95824 14.354
1 49.3762 3.78055 19.9576
1 36.1437 20.5764 28.6426
1 45.3975 5.1693 49.094
1 34.0394 29.8822 20.3094
1 43.1685 2.25141 34.3883
1 26.8484 22.2257 10.3855
1 7.7701 30.5969 42.1723
1 38.4225 25.0289 38.0296
1 13.5033 47.1655 0.826859
1 14.5977 5.41715 12.9748
1 22.4404 9.64979 25.2469
1 34.1482 12.6021 33.5036
1 0.691914 28.1428 37.5282
1 48.348 46.7913 14.5137
1 14.1658 3.82788 39.222
1 4.54231 4.78056 37.1666
1 48.2412 31.4374 21.7572
1 36.0991 42.8457 32.6715
1 7.72193 9.83098 3.98683
1 48.6875 40.0947 3.28576
1 46.9645 24.5204 41.468
1 46.8583 8.65269 36.144
1 3.5687 1.37674 39.4338
1 34.482 34.0455 40.9452
1 42.116 43.8481 22.8273
1 43.4221 26.4177 12.9639
1 13.81 41.4776 19.1097
1 39.6802 10.1594 1.44625
1 17.8199 38.9158 14.5345
1 15.3426 25.8613 47.9677
1 7.02894 24.3677 40.6484
1 28.9295 6.9792 4.01589
1 42.5604 31.6354 45.8235
1 47.6067 1.69147 23.5611
1 8.1674 40.3971 44.6235
1 6.80978 35.0587 38.9458
1 43.1897 35.0699 13.3792
1 22.331 1.31363 3.26536
1 19.8938 18.8357 7.40412
1 30.3697 31.4927 39.0432
1 42.1595 24.0431 46.107
1 29.1837 20.9664 3.82983
1 41.1326 26.4228 6.48614
1 48.593 11.9541 20.9977
1 41.1094 4.30063 42.9798
1 3.21621 15.0207 46.3122
1 47.2891 7.17172 3.54638
1 32.037 30.9086 3.30794
1 13.84 3.79219 25.4173
1 28.5356 7.68612 15.6254
1 37.3759 12.0791 38.9689
1 37.5625 11.6642 49.6101
1 48.9976 40.9231 18.2158
1 15.6194 20.1425 39.3265
1 32.7686 30.7803 24.8714
1 44.8977 31.6792 34.5073
1 34.7968 21.262 12.6226
1 9.22492 46.4192 3.35191
1 26.984 45.9506 27.3672
1 16.5819 27.9425 16.5292
1 17.7716 14.451 34.4732
1 19.4803 40.3027 37.3512
1 28.7768 6.58349 21.18
1 3.26347 37.4648 21.1641
1 43.0206 4.41317 4.44633
1 22.1226 30.4552 25.7854
1 44.3663 9.13027 48.0785
1 11.9646 9.36494 36.4909
1 30.5527 8.68734 17.2137
1 49.3521 1.59573 8.38648
1 22.5466 44.7181 30.5241
1 34.988 6.05249 46.8929
1 21.539 39.3362 33.8848
1 25.3068 32.033 28.9717
1 32.4744 49.3856 11.0536
1 43.6947 32.0146 26.1346
1 21.6115 15.3659 3.14858
1 45.6953 42.0458 45.5473
1 4.24933 2.43462 27.7823
1 18.4447 22.5167 10.5418
1 36.6814 20.4409 19.1302
1 14.5345 43.1301 11.3784
1 29.6095 37.6087 18.8708
1 42.5422 44.1353 37.5674
1 31.1418 0.588831 13.1658
1 41.2347 7.97776 1.28039
1 5.66002 26.6865 0.038256
1 14.5077 38.7985 21.6896
1 22.3904 40.8504 40.6182
1 32.3452 25.6828 27.7513
1 41.7702 8.53481 28.5597
1 13.438 16.7726 29.2727
1 1.20608 30.2448 6.47866
1 15.0181 3.06471 46.241
1 1.82948 16.8483 10.257
1 22.5233 7.37895 8.74667
1 8.56589 11.0648 9.6564
1 10.6915 31.0188 13.9672
1 31.2095 20.8577 20.1941
1 41.4631 25.9511 33.7996
1 46.7197 18.7511 17.251
1 13.2022 40.6941 10.3303
1 48.7919 14.378 22.5231
1 21.1494 46.1577 5.39237
1 36.202 48.4185 33.2194
1 23.0348 41.6168 23.7759
1 11.2227 16.5225 31.483
1 17.1679 0.815175 2.52579
1 21.5078 26.3751 27.883
1 0.0231855 43.4462 16.7804
1 40.8918 0.267972 2.57909
1 14.9692 0.413007 6.0147
1 18.7891 32.2187 6.43264
1 6.87432 7.46919 39.6654
1 10.7409 22.9132 43.357
1 14.7925 21.5844 41.6631
1 47.5182 20.4876 46.6255
1 12.7659 17.6341 39.1045
1 42.2781 41.4794 19.1223
1 17.1027 11.4712 8.8256
1 34.5515 36.8045 39.9262
1 22.3081 33.0488 14.588
1 41.6521 7.4485 48.1626
1 9.13665 13.7909 14.2567
1 0.278233 8.56642 25.5947
1 4.12156 10.192 15.6177
1 29.412 26.0977 9.43728
1 43.8366 31.1693 9.10691
1 29.4436 45.7473 19.6574
1 40.0078 2.49125 27.5739
1 8.90255 17.8257 24.0739
1 2.09432 32.9629 24.4856
1 6.2333 18.3415 47.5495
1 15.5342 11.1182 10.7468
1 17.6969 44.673 26.9406
1 48.4126 30.6992 43.6593
1 28.353 45.6853 41.7742
1 32.7454 25.9727 35.0479
1 37.6424 42.4833 47.4483
1 46.9811 14.8475 11.6605
1 41.5419 36.6429 31.9167
1 3.63052 49.6737 0.77429
1 46.2668 22.8281 1.20283
1 17.7474 12.6543 43.2865
1 18.9062 20.3712 41.6064
1 29.1819 20.8681 46.3633
1 4.78495 8.98515 9.16235
1 11.6123 17.3356 23.6429
1 27.6876 44.3855 32.5752
1 21.5144 35.0073 17.1542
1 38.1373 29.6497 10.8845
1 15.6931 17.5161 22.5279
1 42.5341 8.89516 40.7956
1 31.6034 34.7232 26.7822
1 3.36215 17.6213 26.0031
1 38.9654 10.5669 25.4519
1 0.956513 34.6835 43.1986
1 19.1644 36.2601 45.45
1 12.5097 36.0534 14.3614
1 18.3557 12.5719 24.3733
1 0.770002 7.04997 18.9331
1 38.7832 27.92 49.0663
1 43.2812 7.14346 34.5589
1 45.3765 6.1084 27.4552
1 35.3958 19.399 6.54409
1 29.08 22.0536 43.1269
1 26.7606 3.83181 34.9082
1 14.4942 37.7945 43.8342
1 34.209 29.0921 31.8415
1 4.41517 8.43133 11.7639
1 41.3922 6.73388 19.1182
1 33.8321 26.9982 47.1658
1 19.761 10.7513 34.1962
1 35.6011 11.6301 3.61527
1 7.64344 33.0573 35.0772
1 6.33287 37.6441 39.0532
1 48.1401 30.8014 6.66699
1 31.6645 11.1642 38.3048
1 17.0416 5.38002 26.0706
1 37.1355 38.8822 46.2196
1 28.1693 33.5652 19.7709
1 20.0584 33.5598 13.0989
1 26.4583 0.576226 15.4332
1 21.0849 19.7906 45.8748
1 6.3981 1.85603 13.6451
1 43.6215 46.944 2.28137
1 4.86284 27.0546 46.9497
1 0.308164 46.8249 33.5343
1 20.6903 3.0537 49.6682
1 2.61334 39.8903 34.5481
1 24.1728 9.84334 5.1027
1 40.0687 7.00064 15.6569
1 7.18053 43.627 22.8164
1 29.7357 19.327 -0.0903225
1 27.0365 14.2332 10.6539
1 47.7127 7.06389 8.51502
1 35.7042 44.9224 0.896225
1 23.2684 26.2362 49.527
1 21.1439 40.7516 15.9295
1 20.2795 12.4191 44.153
1 8.36402 4.59098 5.44798
1 39.6179 18.709 19.5267
1 28.2613 28.699 8.98496
1 20.8177 13.0103 16.4832
1 24.1296 10.2834 37.3849
1 48.0857 5.19432 31.0262
1 8.34852 26.3797 49.3931
1 24.6592 28.6925 23.2986
1 5.61791 8.22156 3.05582
1 0.115034 34.4032 4.2701
1 31.3527 27.0892 46.1137
1 35.078 20.973 4.03858
1 27.9779 24.1904 5.90119
1 4.25207 30.1419 12.2617
1 23.7954 12.1328 35.2399
1 28.644 1.19283 31.4876
1 1.44351 19.3213 14.1907
1 8.49014 22.0448 5.1451
1 23.7688 33.8971 29.959
1 29.5063 40.9267 33.0622
1 31.328 11.3441 33.1316
1 7.26786 2.57939 3.97783
1 38.1865 3.20881 17.1695
1 31.7145 31.0889 7.8315
1 1.73449 24.8693 42.9007
1 8.36794 23.4121 13.8941
1 23.4939 21.8364 11.8918
1 46.7866 44.1523 21.4188
1 36.3779 5.55823 22.8225
1 29.7429 46.2937 32.4424
1 21.9379 47.3456 35.4078
1 5.22011 12.7877 11.9378
1 30.5819 33.0134 18.4417
1 18.7632 44.0264 13.0263
1 17.2004 39.1593 40.7049
1 43.3267 36.987 2.05808
1 18.0467 6.27171 32.6664
1 21.9702 16.4752 30.6716
1 31.5472 41.1082 21.8876
1 11.2743 14.4107 24.0702
1 45.2538 39.5887 12.7771
1 3.25571 30.8944 42.779
1 2.59174 42.1058 16.4687
1 26.9274 49.2648 44.5085
1 13.3845 48.8635 11.9191
1 22.3801 4.42629 32.3136
1 15.8831 25.5639 25.332
1 47.8709 44.0101 1.20572
1 34.6621 23.745 4.23549
1 5.12872 17.0238 45.2374
1 12.9968 6.8629 31.8718
1 13.4791 8.38654 3.23352
1 11.6869 32.8778 3.15192
1 25.4638 19.3709 15.5744
1 34.1415 5.7067 14.0598
1 14.3587 8.94965 47.3562
1 15.9609 37.9314 29.4014
1 38.9469 8.06596 19.6411
1 41.1156 30.5896 37.3248
1 6.48424 8.98582 6.44642
1 27.8457 48.1799 16.8274
1 4.25471 21.754 24.0917
1 26.4729 31.1059 24.8134
1 31.6584 26.9197 22.0174
1 1.27262 4.00192 9.43469
1 1.73548 8.71861 4.69345
1 1.30576 1.28593 32.4311
1 47.1194 24.7188 23.6748
1 41.1905 47.9765 44.5364
1 26.1455 44.0438 43.897
1 48.4203 18.6016 19.6862
1 5.50352 48.3097 32.6146
1 34.1256 43.9541 18.1919
1 10.9928 6.75525 40.1579
1 46.8288 25.0675 14.1219
1 16.3658 19.62 30.4251
1 18.2367 38.7591 1.23893
1 0.172947 34.3329 15.8267
1 41.926 9.30385 15.9939
1 37.5434 12.8697 34.3209
1 6.78613 2.08934 30.5581
1 15.1578 42.9158 43.688
1 26.2491 22.994 23.0619
1 49.2821 35.875 7.67449
1 17.291 22.3137 29.5709
1 3.4401 22.792 42.3721
1 35.7589 34.5277 27.6717
1 16.2437 42.2326 35.2823
1 20.7583 38.2888 49.2232
1 26.8953 10.2294 40.304
1 11.906 17.1801 35.6736
1 27.0356 31.9351 15.8068
1 41.7789 6.3087 13.5029
1 27.9634 16.8227 40.0969
1 41.6343 7.45956 23.0638
1 40.3005 49.2047 48.2719
1 21.7778 5.87871 46.2862
1 28.5906 1.9656 44.0225
1 6.83229 47.9787 18.8594
1 34.2701 42.2134 23.0327
1 26.2277 16.9127 36.186
1 13.5371 6.47969 38.6729
1 12.859 35.2006 3.6204
1 48.467 18.7905 24.1358
1 45.9246 45.6677 35.9244
1 20.7384 35.8461 3.1718
1 10.6982 5.78042 23.5628
1 23.7419 10.7223 32.9221
1 48.8295 42.3138 13.2544
1 17.5554 27.8633 46.6629
1 1.2359 37.6897 16.5104
1 24.8874 13.6427 23.9546
1 48.0841 44.1133 31.0944
1 13.2861 46.7798 14.694
1 47.6567 15.3157 4.42521
1 46.3322 38.2191 10.9522
1 27.6032 48.7541 11.1333
1 23.5229 36.2276 10.725
1 10.1287 9.43824 46.4203
1 46.2704 40.3102 17.425
1 19.5163 19.8965 11.286
1 12.709 10.6349 34.1892
1 15.4954 28.0871 10.7179
1 43.8242 11.9829 6.29651
1 6.80456 9.67329 38.2633
1 12.118 22.672 0.387791
1 14.8161 29.2682 48.6886
1 28.2036 13.8317 45.6586
1 7.35085 35.0856 6.25741
1 21.2419 46.1445 32.5045
1 25.1549 27.5389 3.04551
1 38.5975 2.22816 12.6072
1 32.9917 11.2198 5.39815
1 21.6664 9.80735 28.8889
1 41.9578 13.646 29.7171
1 36.5003 19.7038 33.8554
1 10.5854 17.2154 10.9709
1 30.001 31.6794 5.55685
1 41.1026 28.4666 32.4617
1 20.4377 44.6327 41.1788
1 32.8626 45.3819 21.2492
1 18.8273 10.1975 19.3566
1 12.2218 25.3535 43.3468
1 19.7744 8.84418 15.1444
1 18.7325 25.2558 36.2843
1 34.4381 28.2203 25.2843
1 41.3837 33.2106 11.4346
1 33.2816 11.9312 30.3223
1 32.8825 35.3181 13.5632
1 2.8883 6.75961 0.0509037
1 43.3489 36.9452 39.8879
1 36.3963 13.4336 23.6761
1 11.0374 20.9254 23.9986
1 38.893 22.1942 19.6856
1 40.0247 3.28867 38.2577
1 30.22 37.3058 39.301
1 13.961 39.5344 13.2359
1 32.5669 39.9072 16.4664
1 43.2076 40.4107 45.0299
1 5.64151 20.2357 18.6738
1 16.4792 25.9734 8.61779
1 45.7131 16.8685 31.8564
1 18.8876 18.248 36.4221
1 33.1671 5.59023 30.3267
1 46.8028 28.3387 40.5962
1 44.5581 33.8219 36.3488
1 14.2225 16.4442 46.6995
1 26.8204 44.9303 10.0977
1 39.8238 31.7907 20.1799
1 -0.0621669 47.6013 22.6164
1 31.2197 1.928 40.2356
1 34.9924 14.4073 45.7551
1 14.7708 49.462 18.3711
1 14.6054 16.7697 1.41548
1 37.0122 25.2611 5.44009
1 46.6488 11.3118 1.41111
1 16.2898 2.66831 26.8508
1 48.1179 40.984 45.1605
1 12.4627 43.3296 17.3624
1 28.5105 40.5796 8.78386
1 46.5544 44.994 42.3765
1 42.7773 48.5091 8.71161
1 29.9194 14.8113 35.1196
1 14.465 29.2772 16.0238
1 24.5117 3.62118 38.0019
1 5.94716 26.7603 28.7809
1 1.12899 12.079 12.44
1 32.2787 32.909 31.2836
1 29.1251 3.97451 48.0477
1 22.1729 15.4613 41.3992
1 49.0358 14.5113 27.5778
1 47.8859 42.1196 37.9905
1 16.2992 28.7117 1.26052
1 37.3047 33.9525 17.6233
1 24.3543 47.5872 4.01435
1 43.4815 8.03585 26.0594
1 1.22868 28.5517 22.6666
1 38.2562 48.0113 41.5221
1 10.9768 47.2634 30.1121
1 37.7855 27.1484 39.5293
1 24.6806 1.00512 44.3943
1 46.6402 19.771 3.62403
1 31.2499 17.1161 48.4737
1 1.92625 2.03669 37.2405
1 32.1747 28.5278 27.2524
1 34.4816 39.8473 19.6976
1 30.371 34.3473 4.61041
1 0.796775 16.8219 19.7271
1 30.5555 8.15876 45.3962
1 0.450898 18.2226 12.1118
1 43.5152 26.5482 23.1343
1 18.1071 16.7931 44.4254
1 26.978 29.5988 12.6707
1 47.9677 28.4423 23.2452
1 7.69851 14.5027 43.4533
1 6.82374 6.01739 16.38
1 7.97571 6.61669 20.1029
1 1.12135 0.559684 29.8163
1 6.42728 28.1678 26.6416
1 13.746 17.8381 48.8084
1 40.9687 23.5455 15.8965
1 28.4991 45.4487 25.2395
1 8.73016 47.8837 9.18315
1 15.7464 40.3276 17.3793
1 44.1888 7.3252 15.2785
1 36.0207 28.9348 49.5701
1 23.3185 20.7466 9.50961
1 22.9781 43.8367 42.2454
1 35.4036 15.2718 12.4965
1 28.8971 37.97 48.7922
1 36.3317 47.51 0.334304
1 42.9487 16.7088 2.07664
1 42.8458 15.763 9.14862
1 1.32119 8.00718 1.68827
1 21.1634 48.7006 3.26808
1 36.7775 25.0974 19.7529
1 42.6728 43.8421 10.6512
1 44.22 15.7916 33.8289
1 34.6056 1.81869 44.4642
1 39.3153 44.4617 7.94746
1 42.4351 16.7231 38.3452
1 4.78469 31.849 47.2845
1 47.2524 5.04254 44.7491
1 26.2033 33.1073 17.9918
1 35.2426 7.10304 3.87312
1 24.9268 48.3465 11.0783
1 34.8049 46.1035 27.4223
1 18.9985 21.3299 0.49959
1 15.5119 10.523 6.87343
1 22.4058 29.7484 32.4055
1 -0.0422545 3.78504 4.57074
1 9.62676 48.4352 44.3845
1 0.850024 46.2678 37.8329
1 1.64333 11.256 16.6404
1 37.1797 19.1421 24.7019
1 7.42693 27.8294 13.9593
1 11.3428 32.9017 7.02701
1 13.5505 5.07273 42.4681
1 17.4723 48.2858 35.0522
1 27.6583 47.3139 6.42289
1 45.3076 40.7487 43.0205
1 39.1955 22.3469 14.2061
1 48.661 29.9234 32.6749
1 15.169 2.97825 23.2363
1 30.4346 22.7982 31.4347
1 0.518709 36.0868 25.6538
1 11.5659 24.6825 2.36082
1 28.8224 14.8683 25.5554
1 5.85239 12.2004 34.7219
1 15.1476 0.216365 37.9672
1 3.65666 14.6493 26.7689
1 7.20328 43.8883 4.06376
1 25.2205 18.9617 19.8978
1 22.953 40.9191 28.1437
1 36.9934 5.12446 4.06613
1 22.2224 33.9171 21.2002
1 13.658 2.67482 5.91938
1 46.492 16.2357 45.8179
1 27.5295 21.6203 36.6104
1 1.4966 12.6599 39.246
1 36.3637 13.7525 19.7093
1 45.0614 31.4721 31.863
1 29.3585 35.3705 2.35613
1 9.32902 43.664 26.8159
1 18.1878 16.8868 48.9482
1 25.9688 8.76292 36.0076
1 16.878 10.9197 4.60554
1 5.43884 47.7918 1.38595
1 7.94346 49.2821 27.6597
1 43.0644 34.7611 43.9801
1 37.8121 47.2763 31.4706
1 31.2419 3.41528 45.0565
1 3.86581 16.4231 29.2142
1 8.15253 27.6141 42.2939
1 34.9897 42.4806 20.2418
1 6.98792 32.4077 32.4797
1 13.8209 46.4275 22.3241
1 35.648 12.8558 13.6372
1 18.1807 31.2728 10.2306
1 35.7616 4.59928 44.4505
1 8.80667 6.96717 9.42251
1 16.9623 8.46313 15.6509
1 24.2088 14.0785 45.2373
1 24.5356 36.848 39.9905
1 47.1821 16.3492 8.03337
1 33.8168 44.3764 14.6604
1 33.1053 9.02637 9.16504
1 21.0735 28.7791 36.2623
1 33.2809 38.9299 32.2045
1 26.441 9.69876 45.8048
1 42.2209 22.9907 40.2656
1 32.3643 17.9501 3.00518
1 7.53394 39.644 37.3468
1 17.1968 9.80344 0.878166
1 38.2263 46.8752 47.6526
1 17.7936 34.2984 7.65673
1 26.2008 36.3054 23.0416
1 23.332 26.9276 44.9605
1 2.77094 25.9223 24.7113
1 34.3863 42.2106 4.3238
1 16.3829 35.5214 4.44528
1 42.511 30.8549 31.1134
1 31.8323 0.500663 17.5616
1 17.6762 6.03818 1.53718
1 30.3612 43.0713 34.5979
1 35.1968 23.627 7.42606
1 23.9766 17.2883 25.1544
1 18.1144 8.47991 45.7537
1 32.7027 4.75679 7.10429
1 11.9247 31.4799 23.6681
1 28.721 18.7898 12.5953
1 44.8319 33.7009 9.59911
1 9.64392 32.9953 4.9028
1 30.5491 43.3673 5.67065
1 39.8484 40.4619 38.876
1 26.523 41.5191 28.0703
1 38.8586 24.1588 10.295
1 23.661 45.4478 49.2587
1 12.0226 0.729236 47.2159
1 9.66349 46.9545 27.6254
1 45.0346 4.69823 10.491
1 41.9296 4.07401 29.1728
1 45.7089 6.24682 23.8217
1 15.4229 26.3869 2.1765
1 32.5061 22.9065 37.8526
1 9.46651 34.908 46.7956
1 32.3289 26.9344 8.08856
1 23.8285 9.83635 16.8885
1 31.6588 21.9036 9.31972
1 19.4738 30.1409 48.9801
1 9.6077 28.9208 3.99476
1 22.3347 49.2352 37.1929
1 14.2245 27.9999 28.2425
1 31.2609 18.7104 40.2879
1 9.18301 33.5904 39.3453
1 28.9456 16.1361 11.3811
1 12.0786 17.6804 20.9847
1 46.3036 29.0927 31.437
1 33.8289 1.20863 9.30378
1 3.49044 35.0232 13.2785
1 3.05892 16.7861 41.2149
1 2.43329 32.1378 7.85205
1 33.4368 32.2963 19.0266
1 8.07537 45.555 38.8083
1 39.6653 8.57524 33.0836
1 10.8647 42.5566 20.4987
1 15.3732 41.121 22.6518
1 20.4328 31.0931 40.722
1 43.8742 6.06092 2.24094
1 8.74972 18.3121 33.6448
1 36.9807 30.0125 16.8611
1 23.1682 44.0799 20.3023
1 10.0919 38.6817 46.2064
1 11.2375 14.3542 17.7176
1 46.1855 35.1388 24.5862
1 6.24378 13.4697 23.5783
1 36.6237 48.9987 2.76852
1 45.0314 13.4387 45.5471
1 20.2758 26.8994 5.61067
1 2.01038 23.2977 36.0455
1 37.3997 25.5352 26.967
1 44.3972 8.06557 22.2827
1 18.4557 22.9941 45.8548
1 48.0275 35.8714 46.8602
1 26.6411 33.3275 31.8528
1 12.6115 37.8535 16.2959
1 4.095 23.5195 19.9783
1 33.5063 26.368 41.6312
1 3.62753 14.7393 21.8279
1 37.3807 0.498738 36.8728
1 32.3275 43.5489 9.26525
1 36.2717 33.8107 10.4431
1 23.4441 46.2083 21.9995
1 11.323 22.003 16.756
1 3.82359 15.5742 14.385
1 37.9255 4.44754 34.7124
1 38.2018 40.5125 11.9801
1 3.14803 34.5219 35.354
1 35.6989 21.2678 31.6362
1 27.2844 9.95035 25.6786
1 35.7385 31.3556 0.560294
1 45.0484 48.7342 0.711684
1 20.8876 38.8769 42.6776
1 18.9381 1.40822 34.8286
1 22.678 25.5384 36.8955
1 30.1322 29.9742 18.3627
1 32.5491 14.5632 46.7544
1 33.4219 2.84458 27.7072
1 3.31395 47.405 37.3265
1 35.1516 48.6739 37.5567
1 40.1903 0.451367 31.3726
1 24.2943 15.5863 27.2524
1 6.74389 0.679089 23.3345
1 47.1587 8.1588 40.9055
1 49.1167 43.7171 25.627
1 25.9149 44.951 46.5159
1 15.1899 20.8059 17.3751
1 9.01712 30.2662 32.5077
1 44.0799 19.5874 1.94714
1 3.88134 11.5618 47.8277
1 25.0015 22.1707 29.0608
1 3.85522 12.383 40.6021
1 44.6197 16.2483 43.3736
1 43.2211 37.6314 22.0085
1 26.2653 39.3154 16.4863
1 30.6245 18.735 10.3189
1 9.20826 49.0254 6.59759
1 35.7242 34.8579 1.22308
1 11.0662 4.11827 41.7552
1 41.2069 38.1452 6.68045
1 28.8525 25.6968 25.3616
1 17.3994 16.6908 1.55794
1 6.90565 7.8552 28.8011
1 45.4509 44.8016 0.207559
1 2.42484 34.8445 20.6033
1 34.1372 35.9017 33.2862
1 33.9434 5.27593 37.8781
1 9.07467 35.1294 2.62168
1 32.5407 24.2316 8.29236
1 26.1151 16.7994 9.49322
1 47.3918 34.8964 29.2261
1 2.95597 19.9371 22.5984
1 49.3766 5.47507 35.6666
1 7.0244 9.78592 42.7787
1 42.723 4.85667 26.4304
1 3.01141 26.2027 38.1919
1 36.0886 19.82 10.375
1 31.7617 28.7631 0.327068
1 24.0443 0.198206 16.8563
1 11.7845 37.0427 0.747714
1 43.9374 15.1486 28.219
1 23.5862 0.807317 7.49687
1 8.20769 32.6956 48.5459
1 9.86458 48.8479 48.7146
1 41.5789 22.8366 24.048
1 10.0926 13.1781 9.37063
1 10.9028 23.3734 35.3862
1 14.2329 21.4431 33.2537
1 23.5783 19.4406 37.1322
1 1.20388 44.6072 31.6091
1 45.5157 23.2654 9.89229
1 17.9373 45.969 37.1889
1 12.9285 30.694 0.546802
1 47.9198 44.0066 14.9713
1 18.7504 4.72072 35.3597
1 14.8668 23.8623 9.32338
1 34.941 23.1921 39.8505
1 10.984 42.2738 47.6254
1 14.3036 23.8836 37.1764
1 42.6268 1.669 30.3578
1 6.20129 49.2834 9.28114
1 30.6738 23.244 19.0863
1 13.5678 43.844 21.7812
1 6.73577 6.41721 23.9421
1 27.0059 0.453668 6.34444
1 6.69799 46.0105 33.9023
1 36.1115 23.6568 35.0961
1 26.0245 17.6596 42.7014
1 38.509 37.43 48.0993
1 33.9865 40.1932 25.2043
1 10.8188 29.615 34.5475
1 20.5732 48.7914 9.70873
1 4.35707 23.1413 28.1476
1 18.693 24.6754 4.74988
1 37.7513 19.8161 49.5524
1 7.29385 35.6278 29.9287
1 47.5281 3.2508 16.7478
1 11.433 39.7395 3.28532
1 43.6368 4.30278 13.0187
1 35.0527 4.3548 11.7885
1 15.1247 8.34406 9.83452
1 3.61792 45.7015 25.335
1 24.8281 8.76097 25.6621
1 44.5073 35.9805 32.6841
1 37.6189 49.2818 23.111
1 22.7848 35.5065 46.4947
1 4.18011 17.9683 38.835
1 34.5461 15.7489 20.9938
1 43.0867 6.58546 29.9529
1 6.73219 4.24638 25.5732
1 38.9709 48.9031 26.6658
1 14.5219 34.8745 28.2241
1 19.3001 33.2015 39.5219
1 17.6485 19.5434 17.0983
1 4.79528 16.2759 18.7715
1 49.552 23.0254 7.79697
1 43.1249 13.6044 43.6649
1 26.9693 10.92 18.9901
1 21.5622 0.167745 21.0184
1 42.2448 46.0392 11.9636
1 30.9521 41.5434 28.6805
1 13.1739 9.94335 29.4239
1 10.2956 49.2121 10.7157
1 16.159 7.83963 7.2784
1 6.0379 35.6268 49.395
1 24.5658 3.88433 43.1548
1 27.3433 48.9234 34.894
1 3.9776 34.892 24.3818
1 38.5909 1.95864 9.61451
1 33.3795 32.84 36.2145
1 5.57107 2.29233 37.7354
1 21.9644 48.1956 14.4016
1 13.9823 31.9904 42.2943
1 36.6708 3.73719 48.3485
1 49.5815 9.27397 17.0591
1 26.0569 36.8254 30.0615
1 3.86074 46.5586 10.0744
1 42.3067 34.8227 29.6737
1 10.9262 6.28531 19.2945
1 39.2339 46.3462 43.5388
1 45.9299 2.18169 35.841
1 41.4477 4.69701 21.0875
1 18.4336 3.23015 1.73724
1 4.44315 13.2127 36.7551
1 7.45718 2.99519 41.8064
1 45.0099 5.8698 20.2997
1 13.873 42.3678 14.136
1 34.7153 39.0496 47.0548
1 34.2176 37.6756 23.9043
1 29.9297 19.0479 26.3915
1 11.2691 47.1065 23.5302
1 48.6536 21.707 43.1569
1 26.2544 4.98783 17.3655
1 25.035 29.2291 29.357
1 35.7617 2.13193 1.82795
1 23.9516 8.31671 1.53729
1 11.1355 38.3474 36.9902
1 23.2108 4.51191 26.1897
1 46.037 1.57669 7.05413
1 28.5815 14.3886 7.57561
1 17.6734 38.5694 8.45103
1 3.31339 37.7719 32.3542
1 35.4564 36.3166 9.71037
1 23.5045 15.2509 33.2734
1 39.9009 44.81 29.9501
1 8.35705 2.27763 24.8863
1 4.69473 33.7321 22.087
1 12.6653 5.57209 21.393
1 27.1247 34.3954 27.2529
1 45.2288 36.7707 6.88185
1 30.0061 24.731 27.6249
1 39.5102 33.4016 35.9907
1 1.39124 28.1861 34.2115
1 26.8351 34.1945 14.4474
1 28.0659 6.30473 39.6974
1 1.15153 27.4979 16.4556
1 47.8838 31.3405 35.2725
1 25.7559 37.3478 9.92575
1 22.8656 37.7279 22.9591
1 28.1009 10.0337 35.0562
1 15.9084 47.2769 49.2922
1 39.9019 32.4156 -0.0088886
1 39.2776 23.9178 31.197
1 48.8408 9.34418 4.34904
1 11.43 35.5077 25.5075
1 6.60016 20.9271 14.8505
1 46.4351 33.6372 11.8474
1 40.1015 13.9856 18.6037
1 9.3275 43.0306 1.89237
1 32.6471 22.7815 24.0827
1 34.1877 3.03681 19.0382
1 43.8362 48.5342 4.4877
1 18.7517 24.3677 7.76071
1 12.2878 28.1753 3.98649
1 40.4557 8.16803 6.61453
1 2.59056 28.8805 44.441
1 48.3461 46.8331 11.5967
1 49.3526 21.6776 10.3874
1 38.3821 24.0636 21.9791
1 27.7345 33.9264 42.3594
1 32.6111 9.73168 15.5691
1 18.2512 12.5887 18.0938
1 12.17 36.9821 18.8035
1 21.0992 37.6907 46.503
1 38.7742 12.82 44.4503
1 23.934 32.4033 35.4219
1 0.852549 32.1639 14.5498
1 29.9097 19.8571 15.2066
1 11.1451 44.2772 33.3609
1 38.5109 47.0151 17.831
1 14.0308 7.83361 41.2792
1 10.9997 10.258 43.8002
1 29.3707 2.32297 36.937
1 45.4923 34.2787 6.96539
1 1.76275 40.023 21.3192
1 39.5546 41.4404 34.5276
1 41.5206 39.3949 25.2518
1 28.6428 29.2681 44.9253
1 9.0943 29.2381 39.7074
1 2.58716 12.4169 0.688402
1 43.6591 46.4745 17.9791
1 10.6293 38.7039 26.7186
1 37.75 7.40207 38.4732
1 34.3614 49.4933 31.4232
1 46.3052 26.1862 43.4244
1 21.5181 23.8092 22.5928
1 9.52838 18.1978 42.0227
1 8.61251 25.8697 15.777
1 11.9364 2.90811 39.3635
1 37.8476 8.51827 42.9734
1 36.578 23.6494 30.5799
1 11.46 13.214 37.454
1 14.7947 23.2617 23.4233
1 18.7079 14.3403 20.078
1 46.8414 16.2969 23.7463
1 8.23938 38.7867 49.5715
1 46.9146 6.69889 10.8492
1 37.3412 40.1552 1.45753
1 39.1056 46.6981 39.3978
1 24.7772 5.33483 4.79374
1 20.6356 20.6784 19.988
1 17.4236 31.1202 27.0488
1 17.8371 10.1173 25.3977
1 29.7816 5.93885 0.988997
1 46.4166 40.9583 4.73682
1 45.3375 9.5757 19.5132
1 23.3412 16.8171 10.5645
1 40.5402 5.01648 40.4107
1 34.3466 32.3575 38.754
1 16.9192 31.0376 47.951
1 27.116 3.92746 42.5105
1 20.5706 32.2436 17.2434
1 12.3195 23.5002 24.2715
1 22.6207 14.4269 10.6614
1 43.2535 36.9887 4.94895
1 17.5286 13.9203 1.87908
1 38.2895 43.7551 1.63504
1 12.5777 6.96158 5.12915
1 6.99553 41.825 39.7317
1 31.1767 28.1052 3.00918
1 36.0962 43.1799 15.9616
1 15.3236 27.4784 34.807
1 9.77242 11.426 1.39446
1 5.30421 28.5476 30.6821
1 1.84485 41.5541 36.4132
1 25.4787 30.5715 5.48359
1 7.42376 37.7241 43.386
1 29.6967 29.3977 13.6631
1 26.3269 2.40376 17.9994
1 2.11379 45.0515 19.5959
1 30.3314 47.7173 41.5697
1 23.1513 42.0564 4.92272
1 18.2957 18.6129 3.44883
1 34.8645 32.2504 31.4551
1 15.3224 30.1447 38.5868
1 46.5642 38.0929 32.2081
1 30.9883 46.3492 17.3303
1 42.2958 19.3664 4.91236
1 17.5721 44.3411 44.5466
1 39.4246 22.8714 39.9655
1 41.3555 32.5448 16.4497
1 46.3921 47.3477 29.9461
1 13.136 5.82239 34.3813
1 27.2927 12.0667 27.2145
1 7.58813 19.3331 37.5575
1 32.6956 17.6105 45.9106
1 15.2452 40.7302 39.5708
1 13.2119 8.26932 22.2531
1 36.2047 32.5319 15.3973
1 20.7103 4.55086 44.0315
1 19.6338 5.37857 47.9508
1 30.797 21.0659 6.04515
1 29.4509 13.3662 31.5366
1 40.9237 44.5769 25.0446
1 6.36464 39.4403 17.7
1 22.5776 12.8305 40.3379
1 41.2127 47.3868 1.84894
1 6.004 12.5931 38.9587
1 11.3035 43.8858 4.96803
1 48.4134 16.4715 41.173
1 18.4158 26.348 25.7685
1 38.0592 49.3394 29.3189
1 2.92215 1.15476 4.5207
1 48.2325 26.6411 45.5479
1 22.2687 23.9941 17.8785
1 49.5295 45.8813 43.6201
1 8.90099 43.3996 9.41303
1 36.4933 35.7006 48.1577
1 7.95914 33.6853 25.5577
1 17.0047 15.8803 46.7262
1 26.5584 0.248635 48.3955
1 6.21052 15.5066 39.376
1 15.5512 43.1039 16.352
1 21.336 -0.0039916 49.522
1 10.2481 15.6475 40.8417
1 43.2606 5.18471 47.4916
1 13.514 42.5758 48.8944
1 19.2185 42.5224 2.22748
1 14.9969 2.85113 37.2313
1 47.5668 1.31578 14.8195
1 3.31665 40.7118 40.6258
1 14.2006 1.29139 44.2755
1 17.3581 20.2804 13.5472
1 46.4155 12.1408 41.6014
1 34.8747 16.9243 24.0317
1 34.1806 6.9202 6.44138
1 35.8521 41.0981 42.3531
1 48.9105 13.1545 47.9715
1 23.8343 32.9724 10.3982
1 21.5944 1.23407 25.2555
1 15.3759 37.4765 34.4928
1 1.86904 12.1124 36.3765
1 1.44648 10.6965 21.49
1 30.5634 30.0781 36.663
1 39.575 23.6769 33.8658
1 21.2014 32.6091 24.0955
1 23.7531 16.8492 7.33939
1 9.78724 45.0581 19.8951
1 13.8883 14.1323 4.55456
1 40.9871 38.7201 9.27856
1 5.15244 41.704 23.8909
1 42.9814 45.5022 20.7713
1 34.2525 8.96466 25.869
1 46.7399 3.81167 28.7687
1 1.85086 41.4798 13.5435
1 29.2393 17.4635 21.3572
1 36.7198 44.6272 38.8442
1 49.3874 31.94 2.89417
1 0.61759 40.6537 24.049
1 46.8319 10.4182 22.6959
1 6.04486 45.8396 25.2533
1 12.9981 47.8878 5.29054
1 8.64929 49.08 40.2128
1 4.75246 14.1668 16.75
1 24.6356 39.231 40.9871
1 5.53434 27.6745 11.9094
1 0.525066 32.123 32.1942
1 49.2537 17.8342 43.1933
1 20.9681 43.7346 14.2698
1 20.9739 1.85704 6.68279
1 26.7928 17.5855 22.9001
1 4.63278 3.62375 41.3406
1 31.307 39.2556 5.92665
1 28.1234 36.1485 20.538
1 46.9981 14.2271 25.8354
1 11.9665 1.54103 34.1879
1 43.3202 10.8924 28.4587
1 9.44974 37.496 39.8471
1 24.1007 24.5448 22.9164
1 47.4847 2.41443 43.9752
1 32.7508 7.0646 18.8869
1 44.1125 17.4655 29.8117
1 5.68074 31.5628 44.0883
1 5.63447 48.2068 14.4642
1 13.7312 4.57335 8.66291
1 2.4643 31.1111 4.0488
1 47.8773 47.3462 17.4549
1 18.4004 6.34931 10.3097
1 38.2855 6.35042 32.319
1 26.0512 45.3629 7.38472
1 23.0675 22.2246 39.6144
1 39.5736 44.4275 16.809
1 29.1126 10.9391 0.78455
1 23.1127 38.695 36.0928
1 6.24608 29.9702 38.4958
1 24.9244 12.3057 39.1176
1 24.3036 46.1611 34.0666
1 41.59 33.3072 47.7851
1 45.5482 13.4656 13.4561
1 45.9731 43.5918 4.12315
1 23.4709 18.087 13.2509
1 21.7018 44.6146 18.1903
1 44.0308 42.2417 38.936
1 23.6255 26.7524 15.7192