4096
 Atoms. Timestep: 8240
1 2.64707 35.1586 13.7911
1 17.0584 34.224 9.61096
1 28.8898 14.5794 29.1832
1 36.1637 45.5761 5.49716
1 8.20675 13.5462 22.1008
1 1.28392 3.6784 37.0004
1 14.9157 13.0306 41.8271
1 29.0859 29.3699 14.6739
1 47.7066 41.5398 33.213
1 16.0795 6.52723 17.0661
1 33.3359 7.57756 48.7507
1 1.11594 8.23631 21.1753
1 24.8576 5.6129 46.6626
1 48.444 29.9737 6.8533
1 14.5763 17.9832 7.78154
1 19.2675 26.8534 12.462
1 24.2938 10.2693 3.43899
1 3.16511 30.4526 48.6937
1 16.8724 10.3052 20.2343
1 2.16427 28.0657 10.1581
1 47.6109 47.9069 9.63077
1 22.1382 32.121 4.87091
1 5.34185 34.0552 38.8288
1 0.291694 0.393811 24.7731
1 10.2367 10.7505 36.5272
1 7.83708 49.6838 20.8211
1 48.1289 2.98859 28.1813
1 16.5421 21.6034 23.3967
1 47.4267 2.88933 0.823926
1 15.1467 1.97942 39.466
1 36.8944 43.4716 28.0092
1 4.3876 7.93695 24.0238
1 16.4419 9.36855 47.5573
1 47.9287 22.3837 8.04222
1 30.0412 39.0972 34.0871
1 9.61138 5.02694 21.7571
1 19.7131 5.8607 29.7741
1 24.4145 39.7009 40.0835
1 37.4062 21.4692 16.99
1 42.9093 10.0481 7.33103
1 45.0642 46.2991 28.0926
1 27.9747 35.5165 38.6396
1 4.66085 44.8108 3.20104
1 35.2113 46.8468 1.61636
1 44.5349 22.7034 26.7515
1 12.9274 5.94481 45.8532
1 34.3934 26.4849 39.0385
1 8.1559 41.0581 8.19481
1 43.2998 40.576 20.5605
1 20.6579 15.761 17.7207
1 23.1982 0.0496908 24.3472
1 38.9755 3.73405 43.4294
1 21.4219 13.472 44.3208
1 18.0307 31.3341 10.5699
1 38.4796 17.2981 5.32538
1 32.5802 30.2056 32.2633
1 11.9269 24.2207 7.90176
1 7.84911 15.3411 26.6229
1 39.6279 42.8656 36.8535
1 26.241 28.0512 11.1347
1 29.7859 39.0341 22.9377
1 9.95882 39.0172 33.2893
1 2.06695 44.2 48.9142
1 10.6237 37.6629 7.11542
1 34.007 39.8435 10.127
1 16.7442 9.21541 25.8429
1 48.1918 9.80295 41.5441
1 41.6853 24.37 40.4102
1 30.3423 6.83238 46.0839
1 41.7069 2.59487 15.4762
1 22.9731 2.10119 27.7388
1 18.9176 9.59234 38.4979
1 15.3679 12.4648 31.6453
1 21.8206 2.9064 48.7496
1 48.1405 38.5297 11.3921
1 2.20298 10.2664 34.201
1 43.1144 33.4865 47.2423
1 28.0374 38.2464 7.57031
1 34.6794 31.3794 22.179
1 36.6799 17.7439 7.21293
1 48.724 5.04022 9.08419
1 31.9954 6.83424 25.3134
1 22.496 27.9375 2.61732
1 -0.195191 1.94534 14.0208
1 22.0714 1.65609 10.1963
1 21.3986 42.2539 38.6547
1 31.4745 45.0656 22.5237
1 26.367 35.6594 5.12118
1 8.94046 9.65035 10.4285
1 33.6011 40.9512 15.9277
1 31.1558 8.20503 31.3368
1 23.4653 47.3341 20.0862
1 30.5575 15.3032 7.93378
1 39.7013 5.59513 26.7116
1 25.1789 8.63262 30.2932
1 3.48004 3.22639 44.8609
1 19.9426 3.83482 33.288
1 31.7962 45.6415 12.1848
1 22.8737 9.82036 12.5995
1 9.09303 34.956 39.9442
1 33.5468 16.6121 26.4091
1 35.4174 15.1061 44.2738
1 11.732 33.4041 13.2844
1 17.2536 43.0686 15.4911
1 39.5723 43.9581 19.7294
1 38.9852 27.8273 40.8167
1 43.4934 0.936808 49.6726
1 19.3429 24.8376 19.2097
1 43.8687 21.2249 2.33937
1 6.42207 42.8868 43.0027
1 25.3779 46.6287 8.77808
1 16.0048 40.9845 19.8882
1 38.8173 32.3925 21.5427
1 3.39838 34.315 43.9381
1 25.4144 19.7351 6.5729
1 21.7012 46.3888 8.7264
1 26.6643 3.07496 45.1963
1 32.3089 5.04857 22.7782
1 32.7573 12.7934 26.1727
1 25.9797 4.11176 13.0057
1 1.76806 23.5207 11.8321
1 32.2113 20.5362 9.20488
1 29.915 19.6705 40.8027
1 17.3073 36.8411 1.05446
1 4.45622 38.3667 18.6307
1 32.6461 17.0065 40.7635
1 23.2065 39.602 35.9825
1 31.185 8.31057 20.2513
1 42.3319 7.68778 35.5006
1 30.6925 15.4046 4.1115
1 5.81158 40.5578 11.6266
1 36.9666 26.0685 37.1006
1 19.8476 42.4855 43.1932
1 21.0206 13.3897 3.21003
1 46.0444 6.40724 41.253
1 12.264 44.207 10.68
1 6.046 6.2064 0.846995
1 29.953 38.189 9.70514
1 38.3956 34.8476 8.72346
1 49.1419 39.9466 18.0564
1 22.9552 43.3289 30.9014
1 37.671 36.6685 19.3816
1 25.2064 22.7646 6.74837
1 29.2506 11.5713 7.07612
1 0.621879 36.0589 20.3379
1 47.6116 0.700178 8.19735
1 15.395 6.48042 47.4075
1 36.4372 3.50016 8.76183
1 6.50367 18.29 31.8233
1 33.7147 28.8694 0.921887
1 35.7312 3.80154 4.27126
1 38.2069 6.45904 23.2229
1 11.419 10.815 26.7266
1 47.792 48.9731 30.3256
1 40.19 41.5576 15.2397
1 5.64262 17.994 24.7312
1 26.0695 12.1978 6.69597
1 15.65 4.13929 28.0967
1 35.779 38.0532 43.1334
1 30.35 6.45243 40.8491
1 18.9483 3.76597 45.2474
1 16.4428 7.70637 29.3385
1 39.8982 13.059 3.62992
1 41.4332 20.7974 10.6438
1 23.4669 8.73253 6.25909
1 47.4322 36.606 13.0149
1 35.8611 5.0717 13.8408
1 1.00936 21.2275 44.681
1 33.0659 43.9435 24.5695
1 25.4026 11.1278 37.7288
1 36.1273 6.41208 11.6128
1 31.1794 29.5997 40.6473
1 14.1654 10.8543 17.7744
1 14.6993 32.6704 9.496
1 33.3475 26.1772 30.5557
1 19.9414 4.98034 47.4586
1 10.6353 22.1625 24.4391
1 21.5256 43.2986 15.2533
1 25.2564 48.0922 33.9449
1 9.76865 31.9381 36.799
1 12.6204 7.18828 28.9603
1 17.1427 19.8974 7.77484
1 42.8136 29.3589 22.1014
1 17.9931 11.1588 2.93722
1 27.0339 11.3576 27.4353
1 41.9228 22.1989 30.8085
1 37.9711 11.5355 45.0952
1 20.1801 28.3779 0.937136
1 38.8308 37.7002 33.3706
1 15.5331 3.97472 42.5317
1 38.1971 37.6609 47.1276
1 15.0766 32.4436 35.4304
1 25.3035 9.05162 48.4527
1 12.8348 48.091 47.7683
1 43.7665 14.9188 36.3226
1 21.044 42.2832 49.6187
1 3.93495 21.828 11.2814
1 37.6496 24.1634 23.0676
1 22.5015 26.5323 9.86537
1 2.55677 30.3511 21.0984
1 22.4283 47.5663 32.1483
1 41.1544 6.13797 0.542629
1 7.92029 27.4686 9.87111
1 35.8668 8.32705 27.0697
1 2.91735 13.4044 48.246
1 21.4875 11.1749 18.6063
1 19.2285 18.3136 8.77518
1 49.4523 40.8436 44.909
1 11.812 30.3898 9.91301
1 14.8898 20.2793 25.294
1 36.8635 28.2338 28.3265
1 33.8583 3.39844 12.0685
1 39.6133 35.7896 29.5747
1 15.7768 45.0195 48.7891
1 16.4287 27.6177 2.40732
1 48.8408 40.3279 22.1128
1 14.5295 16.8788 14.8168
1 39.8235 3.8647 13.963
1 39.5899 39.5172 5.42758
1 4.00885 20.221 22.0526
1 30.2195 5.29408 15.775
1 10.8028 39.1332 48.6082
1 27.3807 23.2098 23.8428
1 21.5499 9.23436 3.96032
1 40.4004 16.0173 38.371
1 14.7785 38.7214 21.8679
1 25.1598 31.9978 34.8723
1 18.7772 15.2413 15.5568
1 11.9899 18.9542 6.43598
1 34.0005 47.9178 32.1206
1 23.3555 34.1807 48.1351
1 29.0187 30.2198 18.7635
1 8.14743 22.852 11.8226
1 32.6702 10.2997 28.2703
1 24.0605 43.4851 35.3137
1 44.5459 25.2906 20.062
1 12.1945 20.223 25.0056
1 11.9106 7.0588 16.141
1 48.2087 5.68985 4.53927
1 47.0468 32.3008 48.9276
1 23.3333 5.45709 2.97686
1 24.1679 8.35102 19.132
1 23.898 18.2524 33.0253
1 30.9249 19.7197 6.97539
1 11.3524 41.118 43.7728
1 0.586923 12.3543 16.4988
1 1.82905 48.348 8.84775
1 17.564 34.5468 43.7422
1 22.4159 16.7001 49.3005
1 32.1838 13.5877 19.5748
1 49.4906 36.137 0.576409
1 10.0455 15.1567 46.169
1 32.4369 32.512 9.3281
1 27.4955 3.54699 30.6622
1 49.6968 6.52886 33.8061
1 9.19428 39.5361 44.1834
1 1.33474 14.5882 38.7288
1 9.89432 16.676 32.0457
1 46.418 38.3371 44.5109
1 40.8087 40.8513 42.6294
1 18.7458 12.0294 42.263
1 27.4625 24.0929 7.90394
1 11.7627 47.4764 19.1615
1 40.0267 47.4413 36.9041
1 0.20996 3.23706 18.0477
1 8.72308 48.9903 16.2947
1 13.9168 20.0096 9.96841
1 32.4088 22.2459 33.6682
1 15.6827 49.8556 13.193
1 47.9567 24.7171 43.7413
1 10.9929 0.651431 23.1282
1 43.6524 23.8793 35.8333
1 34.9228 39.8435 0.752442
1 7.84539 25.2871 1.28032
1 15.8903 28.6893 7.87423
1 0.368145 29.2488 16.9518
1 46.8687 31.9484 29.2365
1 44.4542 19.8658 27.9616
1 34.0798 41.7276 5.21936
1 2.15031 48.8025 44.8072
1 23.8808 17.2172 3.27253
1 17.0017 24.9475 5.82709
1 -0.21401 2.71422 43.3848
1 8.00412 29.7777 22.2347
1 39.5803 12.6817 13.6513
1 3.88393 11.9147 0.545089
1 14.9697 13.8279 6.98415
1 7.80055 39.6288 23.6997
1 48.2293 12.6591 23.2471
1 33.9383 32.7757 26.2341
1 34.6734 17.7989 43.489
1 12.6164 30.0091 45.7646
1 46.9029 24.507 36.441
1 7.79586 39.9052 40.4172
1 31.9023 13.8911 35.1952
1 21.5805 33.2647 17.5109
1 47.5453 3.16397 3.46325
1 38.2097 35.1065 32.1754
1 39.4468 15.7493 40.8535
1 32.4296 28.719 48.3595
1 40.5497 45.5162 13.8468
1 11.1897 42.9174 12.9956
1 34.7067 17.8974 16.0768
1 13.5477 15.2062 34.6238
1 0.436331 5.41009 31.552
1 29.032 13.3081 36.181
1 3.35864 7.38798 11.9212
1 42.7372 7.84995 13.7257
1 10.6687 11.0648 49.5273
1 17.4635 16.713 6.35827
1 4.69598 31.1666 29.3554
1 40.617 2.8457 2.99108
1 8.34804 41.8318 36.3853
1 43.7113 29.4702 19.1374
1 1.96308 30.6914 25.757
1 3.5382 48.6424 49.2439
1 31.3886 47.0689 7.0651
1 1.10274 10.7962 13.5991
1 36.9109 41.5439 25.4064
1 4.71338 10.8082 40.8387
1 26.9851 17.744 14.6703
1 22.7676 26.6093 6.67947
1 0.136792 40.0222 34.2316
1 4.91792 37.1483 27.8185
1 15.3372 45.7102 22.4166
1 48.2678 28.5346 38.2931
1 3.57558 34.1697 34.915
1 6.29572 11.7038 33.0045
1 36.6172 2.20484 11.5289
1 29.3428 6.13848 37.9814
1 27.7228 33.9606 9.69115
1 10.0674 6.96555 24.7032
1 9.47215 16.0838 24.5994
1 21.9949 30.8361 37.6845
1 32.5721 17.2595 11.9855
1 31.9237 24.288 7.35669
1 3.11226 41.1642 21.497
1 12.7411 9.73427 47.5965
1 1.88165 37.3612 31.0304
1 49.1838 44.5894 35.8665
1 21.3641 46.057 13.8753
1 9.18513 12.6914 27.7461
1 10.4766 27.9182 41.4317
1 2.82809 46.4425 44.3495
1 46.6613 20.1643 25.2251
1 47.742 15.2048 6.58141
1 45.5042 8.51236 3.37135
1 24.5375 47.5544 40.3237
1 22.8245 35.3434 40.4202
1 28.7532 17.1877 22.1036
1 15.6941 6.54907 19.9214
1 41.2019 11.4518 47.5796
1 4.49798 27.032 23.1398
1 13.4448 13.6433 39.6508
1 8.38549 18.398 44.0064
1 20.4271 15.6554 34.1334
1 41.3312 5.36 41.1253
1 9.24645 16.3222 7.4051
1 48.0843 9.83319 48.5795
1 19.7673 20.097 14.6238
1 27.6532 26.0996 23.4957
1 39.5814 36.2864 26.3325
1 21.6994 3.8346 8.80371
1 3.18411 25.192 32.1202
1 47.3486 31.7434 21.2683
1 16.0014 30.1204 34.5886
1 9.85677 16.9563 19.1902
1 22.5426 19.5813 12.2464
1 11.6449 16.4684 13.0545
1 14.6249 9.48999 13.6559
1 30.7235 1.13356 29.5756
1 41.165 15.2324 10.1495
1 48.5153 48.8225 5.50569
1 20.2227 6.11832 2.07101
1 40.7624 33.6755 38.823
1 45.2801 47.0575 13.273
1 4.48689 30.6484 16.9722
1 42.7291 31.8231 37.9016
1 18.2973 30.6587 14.7362
1 12.1011 13.6051 10.8437
1 5.53438 12.9418 27.8948
1 2.28685 41.9191 41.7208
1 35.5315 29.4553 36.1125
1 41.6266 0.0264368 17.4489
1 37.4657 2.77362 33.4031
1 6.45651 42.5608 34.6123
1 9.25197 12.7995 3.9043
1 21.8525 10.3303 7.519
1 44.0643 4.8253 36.4335
1 25.0492 42.9241 15.5403
1 10.6787 7.09129 48.6939
1 15.6019 15.7047 3.11563
1 6.70584 26.2 25.0641
1 32.0476 23.5384 25.7701
1 14.2868 5.68929 38.7761
1 17.3948 45.7435 33.4043
1 14.2523 30.9062 22.8447
1 5.7413 19.2309 4.45377
1 39.2854 16.5773 1.4923
1 36.4123 6.04243 25.7792
1 27.3292 29.3416 42.8844
1 45.5801 28.8711 35.224
1 31.8695 5.8331 20.2069
1 5.64822 21.7064 1.12166
1 10.976 43.9704 44.0836
1 3.30288 29.9476 39.2756
1 1.68128 19.5241 42.3139
1 31.196 33.9853 45.2722
1 6.31751 23.4097 6.83665
1 35.6633 15.6181 25.5987
1 17.4089 35.2819 12.0816
1 9.15006 6.72875 1.18951
1 26.5939 6.6865 19.2509
1 13.7555 40.0685 34.0468
1 37.7622 48.3606 30.9694
1 12.4913 7.57286 38.4709
1 31.8785 16.0514 23.8359
1 18.0294 8.21492 35.8629
1 11.5931 43.9948 1.40868
1 47.5397 5.60675 48.7594
1 13.16 3.87418 20.9279
1 14.4608 15.0195 37.2427
1 35.6883 11.3896 34.4422
1 8.76892 43.6735 19.7591
1 12.0131 16.597 30.0287
1 24.5363 13.0808 15.8436
1 41.6938 13.2071 15.3207
1 4.03466 22.0381 48.5571
1 7.18228 32.7646 25.1647
1 42.9422 27.1401 17.8265
1 31.1027 13.1192 5.94737
1 35.7715 10.6814 25.474
1 44.134 44.052 43.7767
1 34.9672 36.9846 0.960379
1 29.2287 13.2166 46.5481
1 20.1997 48.7009 46.2824
1 19.9724 32.2082 25.7246
1 38.4837 21.4377 34.5948
1 14.6954 15.8866 5.5625
1 28.5255 27.5741 47.2614
1 3.61279 0.753206 10.9822
1 40.6054 16.9308 43.7711
1 45.3757 11.9944 11.3802
1 19.0963 27.3133 44.5655
1 0.303344 38.153 38.4737
1 38.2703 32.9242 42.7843
1 46.4764 30.6007 15.1425
1 43.4095 37.8568 9.89155
1 26.0479 46.6996 17.0424
1 41.0284 36.847 16.8504
1 47.133 48.8075 16.2313
1 22.3592 38.0349 40.8562
1 0.98998 32.4233 43.0919
1 9.27182 14.334 33.3599
1 4.34238 41.6042 18.8702
1 2.21974 4.57316 16.582
1 12.2992 23.7501 18.5222
1 20.2058 10.5726 29.2185
1 45.4253 15.9048 10.139
1 46.9981 28.9939 29.6346
1 48.3713 25.0603 23.9353
1 1.67596 0.982754 36.6876
1 21.1908 29.6818 15.5987
1 12.9017 17.3526 42.6366
1 13.099 4.75341 27.6919
1 22.9547 9.61427 40.7599
1 34.2448 25.2679 41.5874
1 46.1081 7.91433 9.73866
1 16.0225 45.177 14.0932
1 32.6051 40.0615 26.5012
1 34.7661 32.7714 39.7984
1 18.7367 46.658 7.65217
1 10.1633 26.903 48.3147
1 23.0532 30.3703 44.9267
1 18.1535 14.1105 23.8667
1 32.4811 33.5455 39.1396
1 13.071 28.9672 18.0259
1 47.1767 16.545 34.8434
1 8.64758 43.3264 13.2706
1 48.4831 12.6797 32.0861
1 38.6651 45.3543 44.0722
1 1.01877 25.2554 9.93084
1 19.3634 19.5738 27.0045
1 18.1786 47.9211 38.0679
1 14.6581 1.52216 17.4041
1 45.29 43.7075 30.5651
1 37.4847 47.5497 12.6494
1 11.4607 14.2404 4.66415
1 28.5238 42.6163 21.6361
1 35.6988 41.1558 34.1096
1 11.3863 29.894 26.1719
1 16.7224 16.6403 30.6748
1 8.65731 40.1548 5.64854
1 15.9309 8.70905 43.055
1 21.021 35.4435 47.0202
1 13.1931 31.5625 27.6257
1 7.49884 47.211 22.3796
1 0.777406 42.6792 37.7258
1 11.9407 22.9288 37.2365
1 27.7672 43.058 43.1522
1 26.6588 17.8752 19.5323
1 9.85517 22.7651 13.9133
1 17.4046 2.26625 18.2291
1 14.1743 35.6642 30.0206
1 30.7955 5.4411 35.2426
1 4.80449 32.0198 47.2238
1 6.70787 38.4562 47.5666
1 9.42827 44.4762 46.6971
1 12.4896 43.1007 36.9597
1 16.571 31.4626 16.8956
1 24.5856 49.867 19.1903
1 18.4625 31.8954 22.2871
1 47.8588 17.2435 39.4918
1 7.78968 39.901 31.6145
1 29.2742 12.1363 44.2807
1 45.067 8.96203 48.1094
1 24.7292 27.431 39.9
1 24.6405 32.7627 26.7737
1 7.16244 1.97161 38.8198
1 13.8743 31.8764 16.5993
1 38.0581 15.0845 3.49156
1 14.0686 23.2542 31.3775
1 48.3227 20.7073 34.3189
1 15.1885 25.4874 38.957
1 8.51027 3.86322 14.4113
1 18.7027 41.2248 0.502821
1 32.8595 47.0718 14.7942
1 32.5472 16.7198 32.3446
1 6.30032 13.9576 9.94703
1 31.2799 13.8096 1.72547
1 43.1907 8.79942 28.6288
1 28.152 24.1227 10.9666
1 35.1886 29.1805 46.834
1 23.9979 32.5383 37.3819
1 29.6917 22.7957 7.16029
1 45.5562 46.6231 8.45539
1 27.0644 18.4721 38.2721
1 3.99634 34.73 28.216
1 33.7371 18.8107 33.6674
1 48.5196 12.289 28.7098
1 35.5995 22.3366 33.864
1 49.3483 1.33191 4.73325
1 23.5186 0.615051 48.7611
1 39.3677 38.1869 1.22984
1 48.0161 1.95221 25.5694
1 23.3317 39.5018 18.9686
1 21.1752 25.5795 2.51339
1 6.66887 32.3551 14.9781
1 7.48439 28.4589 32.8609
1 10.0087 43.9375 23.7439
1 29.8888 21.9393 30.0307
1 19.2483 45.3408 35.1928
1 8.24417 21.5565 7.55028
1 4.03301 26.0103 16.751
1 17.4382 0.383979 25.2672
1 12.6923 41.7519 20.2486
1 38.883 33.3541 2.24917
1 17.272 25.3759 10.7077
1 49.5547 44.2759 47.3007
1 37.3382 19.9631 9.21422
1 31.9275 35.6534 7.21632
1 45.1845 12.0215 49.0422
1 38.972 26.3358 8.11081
1 40.9508 19.6793 26.0069
1 40.043 26.4992 18.3923
1 7.36696 30.8511 47.8314
1 10.4237 1.92247 46.6336
1 27.4253 49.3331 48.4883
1 2.61979 37.4948 16.8283
1 30.0247 18.6662 3.08823
1 49.1662 19.8941 36.9562
1 35.0297 6.69937 45.1288
1 9.48468 43.9961 31.4891
1 13.4193 33.4331 18.8405
1 14.0229 13.4763 29.4499
1 18.7103 23.1226 10.8557
1 14.8196 47.3372 11.0323
1 18.1654 47.2321 19.2058
1 46.9519 49.3977 43.9451
1 44.6527 46.6005 37.3961
1 43.7738 36.5114 5.71141
1 41.7815 9.27956 1.3632
1 7.1711 28.951 44.0125
1 1.27493 46.7352 40.3964
1 42.4364 18.1249 6.71943
1 20.3094 8.58064 40.6827
1 6.35975 38.1366 39.0764
1 13.4788 45.0786 32.5015
1 20.0733 20.2763 17.2539
1 49.4286 10.0673 17.8347
1 15.621 32.9352 0.9979
1 4.11482 13.8523 22.4314
1 30.1394 27.0222 49.341
1 41.9052 40.6227 33.8927
1 20.2401 23.3862 45.3442
1 9.37192 1.11867 5.80399
1 34.0636 20.9923 23.4111
1 0.920808 0.726666 30.2582
1 24.3111 24.9036 26.1037
1 42.9244 4.01094 17.3996
1 7.46484 13.7094 30.0253
1 17.2992 16.302 33.4069
1 0.15471 6.63202 46.3936
1 9.94093 48.7142 42.1444
1 21.1397 1.24561 38.7518
1 49.2083 41.1581 4.10012
1 13.7222 35.5148 4.41161
1 34.3324 22.1381 14.076
1 27.5386 11.0199 35.9443
1 26.1527 29.523 31.8306
1 16.1879 25.8066 30.0158
1 33.8894 37.5256 26.5322
1 6.82921 2.00177 22.2842
1 37.4731 11.9344 42.4015
1 14.9182 38.0588 42.2578
1 47.6336 32.0535 11.4012
1 4.44419 26.1853 6.64117
1 2.82811 41.0392 30.3274
1 5.61841 40.6512 8.66837
1 34.7574 32.0189 28.8308
1 0.272992 3.38144 0.42898
1 20.0783 15.1793 48.53
1 15.2192 39.7546 38.2628
1 33.2948 4.7329 15.525
1 8.57807 39.5979 28.996
1 41.5258 28.4035 48.0087
1 25.2769 36.8607 46.8612
1 49.1102 7.24542 2.56857
1 47.0904 31.6037 4.83579
1 33.5436 1.36116 29.8498
1 4.45805 0.629761 22.952
1 21.6654 27.0811 13.738
1 16.054 10.5455 38.56
1 14.0564 4.96254 2.25486
1 5.6267 0.697403 47.9931
1 6.81861 47.6198 45.4498
1 18.0626 22.1863 6.79131
1 5.26045 42.9434 30.2246
1 3.71063 2.88048 27.2509
1 13.0919 29.5024 3.32951
1 49.2014 38.3352 44.4305
1 44.9621 21.6593 21.1409
1 42.5078 40.4967 48.4264
1 20.2773 15.9609 30.8887
1 0.680737 15.3446 41.4405
1 45.8248 14.6814 14.809
1 43.1195 25.543 49.3155
1 18.827 2.54699 28.2342
1 5.30343 28.9205 13.0274
1 18.217 40.9219 42.0226
1 30.0034 21.8643 10.2479
1 49.451 13.1498 35.3184
1 49.0494 24.6096 19.7269
1 23.5693 12.5877 13.1362
1 23.9125 22.0446 34.8259
1 35.5973 48.5716 23.2541
1 7.84789 35.2382 35.4483
1 30.1857 9.15265 8.18483
1 9.60315 6.4903 39.916
1 26.607 1.98167 34.3513
1 26.3043 31.8186 29.9279
1 17.6031 24.1653 14.7214
1 6.68345 8.20382 10.8434
1 44.309 21.8122 13.9346
1 49.048 27.9497 30.9209
1 43.1844 46.8536 14.8843
1 26.62 36.6166 21.6851
1 16.7891 43.0988 21.9091
1 29.7941 14.1686 26.5088
1 42.7811 41.7995 26.6775
1 25.7165 49.5533 26.8729
1 23.3611 35.2126 37.7356
1 4.26014 17.0317 3.09195
1 48.8546 19.1524 9.26628
1 2.45695 42.2101 16.8368
1 41.8776 29.3926 30.2215
1 16.0032 5.60828 34.8934
1 37.3253 44.3 17.0177
1 29.513 33.5225 42.2278
1 20.2987 11.8075 15.1673
1 28.8488 12.1666 9.685
1 18.3836 15.5103 9.39836
1 12.1266 33.6718 8.7584
1 44.945 44.4016 12.5974
1 2.20692 21.1577 20.056
1 4.75218 30.6724 4.57288
1 6.22309 17.5902 36.5937
1 34.7095 44.7838 15.1151
1 37.293 14.8548 27.3462
1 28.0387 28.9134 28.4581
1 41.5476 37.8981 27.4549
1 41.7354 42.9009 21.0172
1 27.2437 48.2439 2.1435
1 36.1089 24.062 2.49127
1 34.2313 28.2328 32.3242
1 38.9824 17.4699 29.4609
1 14.7867 44.812 45.25
1 1.07336 29.2549 14.407
1 8.32795 20.237 17.3315
1 4.76182 43.2114 11.9107
1 9.11715 46.4946 12.8851
1 28.683 38.3167 18.9724
1 7.60568 6.166 42.4216
1 3.26993 25.1752 13.7576
1 5.27885 25.5016 38.8914
1 22.4615 13.0437 0.940199
1 43.0162 23.7365 10.0836
1 20.4352 25.5418 7.81885
1 16.9414 36.4218 16.7174
1 2.04211 32.0009 6.46949
1 28.347 21.3805 14.6732
1 2.6414 29.2384 5.84583
1 42.2871 17.7452 28.0007
1 22.4313 34.9383 6.26841
1 6.05059 27.7212 30.4169
1 1.87994 5.71258 14.0693
1 25.7741 48.5646 45.7973
1 23.3574 15.3804 17.1568
1 42.1854 19.0302 23.6303
1 24.1706 37.4847 22.591
1 15.7859 11.8314 25.1254
1 44.3491 23.1792 18.019
1 43.1988 8.20215 5.29749
1 21.0017 21.0328 35.9875
1 5.11255 15.3378 26.2564
1 3.02183 49.5618 6.15559
1 20.9923 27.9908 36.542
1 7.80743 18.2746 49.3702
1 9.56322 9.15231 44.917
1 40.6991 23.6652 11.2819
1 41.6998 7.32412 26.2327
1 42.5875 4.62424 22.9004
1 43.8031 33.3647 19.1651
1 0.196851 17.7377 31.1533
1 35.3296 23.599 27.0513
1 4.61347 7.32007 33.6064
1 37.6321 33.253 45.1583
1 19.4131 33.5937 36.5564
1 33.6302 6.01992 30.9398
1 21.2802 46.0057 30.2612
1 36.0717 34.5594 25.6818
1 41.0931 3.09705 26.5594
1 4.81819 0.20892 41.447
1 24.1476 39.4187 49.515
1 24.5876 26.2392 34.2108
1 34.4884 20.6528 16.4078
1 38.2992 15.7927 8.52866
1 19.6587 24.2612 27.7187
1 30.1512 24.3213 45.2386
1 13.1437 43.2582 17.1076
1 35.7758 22.3489 6.53227
1 14.9129 24.8356 17.6144
1 12.6963 36.1013 7.05522
1 48.6102 31.5487 13.8893
1 29.0534 12.3893 39.8915
1 14.0149 49.0044 15.1964
1 31.9587 30.736 1.92088
1 23.9691 2.23752 7.02677
1 34.1516 42.2738 43.9484
1 25.7353 10.3626 23.142
1 43.7857 26.7606 21.9131
1 5.39317 26.84 11.5386
1 10.5934 46.1013 27.7411
1 35.0476 49.1944 40.1872
1 30.5081 11.6129 49.2758
1 32.3666 34.1894 28.1479
1 38.8005 10.6801 4.50978
1 21.5798 21.673 4.75528
1 46.9751 17.4236 14.8421
1 39.3814 2.26882 24.3152
1 3.25522 7.11682 47.097
1 43.7968 38.5649 7.19579
1 27.5179 7.85104 16.7347
1 12.0382 41.0482 41.1697
1 8.49669 24.5391 32.7473
1 2.21229 5.84376 20.1561
1 9.45401 35.508 48.6665
1 42.7992 6.50184 38.2255
1 8.86637 48.194 -0.058859
1 35.8559 23.3961 48.8798
1 43.7227 43.3562 7.35121
1 23.4824 29.5824 41.4032
1 2.82489 20.2708 26.6985
1 14.0599 38.1638 10.8183
1 43.2947 3.55495 12.8537
1 4.35451 30.0993 1.83953
1 39.478 9.13078 44.6881
1 14.2093 43.2611 2.69169
1 0.165624 27.8138 2.66152
1 23.6038 31.9424 29.2215
1 32.055 32.6499 49.5967
1 40.255 32.2266 35.2419
1 44.7126 27.5842 30.2101
1 16.387 49.1658 1.90871
1 33.1979 9.80602 21.7716
1 33.137 34.5958 47.5791
1 41.7141 9.9559 31.7269
1 6.75731 47.3451 39.029
1 13.9974 21.312 14.4718
1 18.2376 6.71155 27.6671
1 3.5974 45.4811 33.3541
1 25.7525 49.1983 14.8562
1 27.675 32.9425 4.70738
1 20.7875 43.4084 12.0402
1 18.9209 13.4534 7.31983
1 12.9132 17.0843 38.5656
1 38.5681 31.6421 39.2728
1 16.6672 1.12085 7.50903
1 21.7945 37.2876 18.3081
1 26.032 31.8191 38.7241
1 30.0878 22.8279 0.911751
1 45.4268 27.6449 45.4106
1 40.0268 12.1575 34.9359
1 5.67354 22.3475 13.6633
1 33.632 48.3358 17.2645
1 18.2738 20.0243 44.1391
1 7.61484 9.62205 40.3056
1 42.6577 26.2097 46.4517
1 12.1255 36.8551 15.9821
1 18.309 22.6778 33.5028
1 7.69102 4.79131 44.8709
1 9.55192 32.3654 32.7405
1 47.641 42.8214 30.8607
1 36.5101 43.3283 7.60585
1 27.7638 23.9735 47.0388
1 3.27312 16.585 45.6639
1 25.5074 43.9019 7.66357
1 17.0434 34.985 46.1731
1 2.76769 35.1886 39.3012
1 20.9486 49.5495 16.6238
1 46.9229 24.6982 2.03714
1 13.8901 24.9609 22.6762
1 34.4947 3.85628 28.9713
1 12.7012 3.14461 35.7652
1 24.06 32.4877 2.31957
1 34.8319 24.0999 20.1201
1 15.9325 10.6004 45.2262
1 35.9207 26.568 46.1175
1 5.79791 45.7073 5.53372
1 2.30459 33.5305 26.0549
1 14.3685 22.3181 8.05759
1 34.7414 40.3323 39.7699
1 47.4593 7.00065 37.7984
1 29.0716 38.0897 25.2006
1 48.685 34.4433 38.8813
1 46.1439 41.2554 21.9492
1 20.3144 10.8203 49.2194
1 34.4633 24.0093 46.4173
1 46.075 22.8021 0.553956
1 23.4558 44.5779 17.2054
1 20.9339 30.7882 49.2214
1 23.9935 38.0871 12.0779
1 17.1392 46.087 11.7662
1 9.34498 17.9907 46.906
1 6.50993 4.67756 5.11281
1 11.4815 28.8844 7.31009
1 0.873344 49.2357 34.6847
1 23.287 44.4518 42.9628
1 44.648 9.75091 45.3013
1 12.7851 7.0191 13.1893
1 27.2415 45.7372 42.8024
1 19.1247 26.9541 34.1755
1 23.1594 49.6396 46.0971
1 31.1991 46.2798 44.1852
1 39.0377 15.7408 24.4818
1 3.45092 22.7398 36.6663
1 29.5773 29.2258 10.7029
1 36.0811 38.244 7.42101
1 17.3922 34.0644 34.9295
1 23.2805 9.23855 38.3341
1 8.59449 25.5057 26.9458
1 6.22454 32.925 3.92937
1 0.869178 14.5354 18.5173
1 0.69538 26.7588 13.0453
1 24.053 27.163 20.9702
1 4.47414 11.5638 38.4583
1 49.2701 26.1939 26.4025
1 10.7404 27.4955 27.651
1 15.3739 0.216412 20.9348
1 48.3539 24.1933 27.843
1 38.6486 24.2317 9.74091
1 7.66652 33.6347 16.8931
1 37.4512 6.49077 6.85529
1 32.8389 43.732 16.6862
1 15.8981 20.8147 38.1251
1 31.5743 33.2494 3.8983
1 49.3992 21.7654 38.9591
1 19.6904 46.4048 1.08824
1 27.8718 32.1813 22.0264
1 22.0145 25.436 46.4329
1 8.18965 27.9318 16.3192
1 30.9848 15.8181 42.4465
1 1.59433 4.97739 24.5904
1 44.8981 19.3753 7.83202
1 40.0524 4.27335 11.2929
1 37.874 38.9746 3.2712
1 22.3563 21.3797 17.6824
1 11.2597 23.721 5.42016
1 23.1266 10.5997 25.8045
1 21.1241 22.5805 12.0084
1 10.7253 10.8166 41.7914
1 25.5792 28.4844 23.0707
1 6.60001 35.8725 40.2765
1 48.0993 10.4661 24.8729
1 39.8026 46.5283 19.0237
1 22.842 29.5552 47.6002
1 6.83432 24.6927 17.749
1 20.5201 37.9183 47.5787
1 37.2836 16.9335 10.7135
1 11.1978 0.49218 27.3605
1 1.62349 18.0274 3.8058
1 8.43561 30.4343 19.5745
1 37.3255 27.1468 15.3261
1 18.439 39.8739 19.8521
1 40.2727 7.72685 37.907
1 32.2451 17.9292 30.219
1 46.6907 26.2053 34.501
1 45.6369 31.7693 35.9807
1 47.3084 15.1107 43.9153
1 10.6693 49.8305 20.8051
1 35.0585 46.0064 23.868
1 14.427 2.09259 32.573
1 17.581 2.5138 40.662
1 18.4822 5.146 41.9612
1 28.4345 38.3471 3.37838
1 7.38823 11.7094 13.9672
1 12.0858 31.9554 49.4703
1 3.24813 49.4267 38.2734
1 38.5596 44.0955 14.6167
1 14.1306 38.2599 44.6994
1 48.0891 14.019 18.749
1 8.93304 28.779 5.94169
1 44.385 17.1035 31.4378
1 19.0131 15.2875 26.2532
1 43.9592 21.0046 42.7468
1 40.5122 22.8175 48.7431
1 43.6175 41.9409 2.0156
1 9.46475 9.5172 47.8679
1 7.88894 39.8499 21.1558
1 30.5906 14.9714 32.7952
1 45.483 26.5056 16.5901
1 6.57974 6.83247 47.9011
1 0.409676 22.2621 24.8093
1 32.8722 47.8649 19.8626
1 41.2548 23.8436 25.84
1 34.3817 27.5198 28.2783
1 -0.0298649 9.2682 9.5865
1 19.0775 32.3173 4.01344
1 41.3151 44.6417 39.9015
1 1.90192 26.3012 41.2326
1 8.18149 37.2588 25.2023
1 17.7894 11.4372 8.78071
1 17.494 15.4712 38.4235
1 29.5198 47.2069 38.6504
1 16.8272 43.9528 38.1497
1 23.1534 46.2278 46.0725
1 20.7197 49.4523 4.80286
1 12.0138 21.6387 16.7122
1 2.43887 0.911101 40.4161
1 2.805 40.7563 13.3961
1 14.9184 40.023 7.02622
1 41.9701 8.95192 17.0544
1 5.6499 48.5283 13.364
1 25.8615 26.674 46.6883
1 30.9804 17.4097 38.3749
1 38.9451 19.5557 11.0858
1 40.8684 17.0087 22.5554
1 32.1377 17.1746 6.96057
1 49.0834 39.2484 48.9817
1 27.211 6.33086 4.93381
1 14.2288 7.53419 34.4145
1 39.4292 32.9141 47.0906
1 0.0914036 30.9252 31.8469
1 9.0002 11.6803 32.0447
1 18.6669 2.57328 25.0062
1 10.4888 6.57266 9.9944
1 33.7961 36.0829 15.2491
1 0.757087 8.5399 35.8605
1 33.9989 4.70859 26.4021
1 7.81417 6.12955 26.4901
1 20.1352 34.0574 1.98083
1 22.629 42.0596 42.3447
1 30.0863 11.809 18.3442
1 31.1851 1.40664 19.368
1 34.6004 32.9354 0.763718
1 12.5681 39.8594 22.2069
1 7.00496 7.31838 18.117
1 12.7015 35.292 11.0361
1 31.0736 41.7717 22.3794
1 36.0809 49.6273 25.9918
1 39.0492 22.3241 25.0622
1 15.303 2.70941 21.7416
1 26.1478 3.33655 24.8027
1 20.6534 31.0708 11.5795
1 1.2569 28.681 23.0762
1 9.16031 29.9354 28.737
1 4.00698 46.9248 9.03059
1 9.38655 7.85432 3.61472
1 24.0269 43.7021 2.99173
1 5.44604 22.2856 31.3861
1 36.5208 30.5008 20.6164
1 23.7512 14.9567 38.7144
1 0.380269 23.5403 46.4353
1 14.8153 37.6746 33.8974
1 19.0017 21.639 4.3742
1 7.28595 37.1233 8.85554
1 4.10235 16.1071 41.3919
1 40.8773 29.9359 44.0182
1 30.0427 34.9406 22.2985
1 4.89624 47.1859 21.5423
1 30.1605 42.0987 29.9158
1 2.60039 29.0993 18.7362
1 18.6868 21.6022 19.5024
1 22.5397 29.6634 30.7243
1 44.2917 30.7938 23.7989
1 19.0782 49.9651 18.5584
1 31.8006 11.1084 30.8389
1 21.0719 3.4169 26.0231
1 3.72894 10.806 29.2705
1 40.0143 49.5974 42.8635
1 13.3853 28.7979 37.9303
1 46.2793 18.3665 0.757555
1 40.1057 2.92058 5.85584
1 25.0011 1.93467 10.3213
1 3.11903 38.4861 21.2018
1 42.3082 40.8717 6.44796
1 39.9592 35.293 5.79321
1 47.54 10.2082 19.9568
1 33.2561 16.1996 21.3117
1 20.056 12.8323 34.2561
1 3.68905 2.25661 6.56496
1 31.0233 40.3641 36.8853
1 32.2869 9.2686 17.9065
1 37.313 36.5265 40.9506
1 23.3103 6.10163 38.1151
1 19.7762 29.4054 31.2816
1 12.5362 1.94195 15.0601
1 23.6614 28.497 35.8641
1 22.4738 44.5179 23.3111
1 36.7773 32.8802 5.76165
1 3.89828 10.6528 17.3415
1 48.5821 34.6815 23.8151
1 47.6312 33.3551 34.6231
1 14.1784 35.7332 38.4293
1 19.7457 43.2276 45.7233
1 24.7776 31.2217 15.561
1 38.6997 31.8467 7.65513
1 14.1788 4.28942 17.4536
1 26.9484 14.1591 9.79381
1 12.1045 47.9552 2.47752
1 12.7338 41.3719 48.1226
1 10.0308 36.1029 11.1098
1 26.5411 15.7105 49.5468
1 42.81 18.8543 16.1706
1 37.994 5.41263 17.9773
1 18.9699 42.256 25.0299
1 29.3704 8.2051 5.59142
1 42.0837 28.4142 15.3596
1 41.9066 33.3161 13.4077
1 1.28019 25.9711 49.0073
1 38.1661 22.1428 2.27742
1 4.97646 38.3342 5.1297
1 35.9978 22.3059 21.5352
1 41.4678 25.7463 22.7937
1 22.0498 5.77758 10.8988
1 34.3164 11.9992 48.8761
1 29.6626 25.0142 26.6095
1 16.2024 37.0701 3.82057
1 27.7754 21.0467 33.3338
1 46.4057 13.8392 46.4303
1 26.6699 31.7001 18.1929
1 24.627 29.2998 27.8396
1 29.8509 26.3423 11.815
1 44.8857 1.4501 38.726
1 29.7434 48.319 43.0044
1 9.7364 27.3947 13.1261
1 16.7852 20.546 17.8388
1 25.0315 30.5742 7.29827
1 18.7221 38.4075 35.1821
1 8.50487 22.7492 0.165077
1 19.2169 25.7172 16.7124
1 30.491 41.5198 25.182
1 7.56051 17.1793 20.7368
1 9.54763 16.0729 11.1256
1 24.1177 7.7724 42.5904
1 39.6566 42.6929 33.6752
1 23.1659 6.2475 15.2222
1 1.45166 48.5208 26.4937
1 14.7161 26.1832 34.5611
1 15.8846 17.9629 41.5616
1 48.9829 45.2675 41.1673
1 7.02113 45.1255 11.0722
1 33.0257 47.7787 5.20406
1 4.72274 8.23541 16.9672
1 44.9818 31.6185 42.4081
1 37.3247 28.6151 32.3889
1 21.6369 11.9851 21.5857
1 21.7544 6.91342 49.3723
1 43.5545 18.47 18.7116
1 44.3018 42.5477 16.5151
1 40.2321 44.2287 5.92556
1 7.39224 42.2879 38.8745
1 1.79275 44.4308 5.72116
1 15.9585 4.30852 13.2596
1 7.38829 11.845 46.3882
1 44.9705 11.989 33.9202
1 0.775099 33.2358 15.2779
1 39.6798 3.96174 29.2336
1 44.1797 36.8636 22.7225
1 41.187 20.7654 7.58687
1 43.8993 44.319 35.9303
1 41.3354 32.4558 2.06461
1 19.674 43.3849 16.9963
1 37.047 31.455 35.216
1 31.079 37.3439 21.3878
1 48.8526 6.80338 41.5806
1 24.2747 4.8576 18.4736
1 12.471 38.3105 26.4117
1 48.2103 1.42816 40.0238
1 33.9826 49.7592 33.8738
1 38.35 34.7518 13.0335
1 13.8153 1.20459 26.1427
1 24.6701 43.1941 19.1372
1 12.9046 28.918 31.0061
1 49.6102 49.6593 43.5994
1 8.30158 29.6963 37.4233
1 43.7124 35.9637 27.5066
1 15.8046 22.2543 21.0174
1 7.52244 46.7719 2.08083
1 43.8693 12.5073 6.08884
1 2.89864 18.1446 8.50633
1 0.277598 4.49443 39.1307
1 27.4008 21.8904 30.6512
1 7.52137 25.3725 12.6531
1 22.3462 6.4354 17.7991
1 1.76348 27.2521 36.6813
1 21.9324 44.6256 0.981931
1 48.4486 1.20339 37.2925
1 15.6038 31.5862 24.9853
1 36.7976 24.6435 4.99649
1 36.0976 40.5857 41.9477
1 43.4685 20.7859 38.1687
1 33.1985 42.4754 46.7699
1 2.24644 10.1911 19.712
1 14.6125 37.5818 8.18204
1 38.5273 0.485362 9.5228
1 19.1928 21.1 0.691004
1 9.52296 5.18053 7.72697
1 12.7918 41.793 6.86088
1 12.8757 18.4678 18.3567
1 44.2553 39.8521 31.1889
1 36.0797 34.7742 49.2864
1 10.3563 39.182 40.1882
1 25.4838 27.8178 7.03476
1 12.7305 27.1345 45.606
1 40.9849 18.2373 36.1489
1 45.941 45.5753 32.9306
1 24.5298 27.7831 14.3033
1 22.5313 34.6957 22.5805
1 44.9517 30.4989 4.03169
1 45.8868 14.4205 26.9533
1 49.6361 4.37495 12.9069
1 29.4842 5.36844 31.5205
1 6.68337 47.1419 29.7615
1 2.62324 20.1557 36.4067