4096
 Atoms. Timestep: 5940
1 48.2277 15.5562 46.2296
1 5.68896 14.9427 18.1626
1 26.3977 24.3612 16.2548
1 43.0984 6.77685 43.0831
1 27.352 24.0856 28.8424
1 40.3565 24.0465 29.4807
1 1.72265 42.3137 22.3737
1 47.8522 20.1326 41.0988
1 15.837 5.01984 29.2631
1 28.7995 9.65379 10.4138
1 2.52407 47.4527 9.55275
1 23.9776 12.3787 9.90334
1 44.3461 21.3924 39.0304
1 20.4044 39.6017 18.2303
1 34.1027 30.2951 45.8634
1 38.5267 7.42949 13.2756
1 41.2466 40.684 3.77544
1 40.4406 7.54087 22.7574
1 5.24703 30.7448 37.5237
1 42.5306 33.421 12.7261
1 43.4075 15.3054 18.8939
1 16.4025 39.3065 12.1524
1 15.9934 12.3662 43.4313
1 28.2338 18.8303 8.59529
1 5.92438 9.45152 15.8672
1 42.7848 11.5266 37.4936
1 1.83036 15.9287 9.94541
1 0.603806 10.991 24.4232
1 12.9353 8.49159 44.7812
1 13.5613 35.2343 40.9035
1 33.3712 0.112423 1.08005
1 20.1604 15.1506 15.7298
1 42.1033 8.57362 39.9046
1 21.592 47.0652 22.3565
1 46.8158 42.4406 43.6344
1 32.2793 41.5694 43.8483
1 47.1585 27.697 28.8035
1 24.6233 8.70912 44.3934
1 15.9078 23.1631 45.623
1 2.18897 28.8787 6.2348
1 29.4383 42.9299 41.3958
1 37.3006 22.0475 25.1939
1 18.9515 11.9651 23.8098
1 26.105 35.7835 5.64715
1 49.4473 15.7174 14.4786
1 12.0017 49.7691 28.6601
1 11.9461 14.6503 42.2409
1 35.712 3.9942 12.9371
1 28.5582 7.60612 8.20936
1 38.7412 47.552 4.87245
1 8.19096 30.6639 8.84858
1 1.57536 12.4512 45.079
1 13.5169 22.3251 37.4473
1 12.4109 39.43 24.7364
1 30.3032 43.118 1.65715
1 14.7196 0.680289 17.5112
1 19.7623 8.09419 28.9628
1 8.59174 2.94206 3.93288
1 24.9206 8.13892 31.1236
1 4.04868 47.5922 25.1365
1 28.5795 14.2647 36.638
1 9.76526 13.0051 16.4637
1 48.8843 14.454 5.92815
1 27.2751 10.5368 3.83418
1 20.5307 36.0879 41.4917
1 41.5874 8.26219 47.1719
1 48.9513 42.9136 20.7212
1 39.9363 48.269 8.37216
1 5.88839 38.8257 15.8275
1 48.9618 39.9446 6.31489
1 46.2628 40.7993 10.6859
1 40.0506 16.6872 40.9978
1 4.50266 32.1182 21.0489
1 44.7312 23.6796 1.49518
1 45.619 22.3931 48.9611
1 12.3912 21.295 14.7767
1 13.056 31.0094 28.6361
1 43.0959 33.1127 33.4095
1 15.4053 26.2508 32.715
1 14.4933 4.36194 9.67381
1 6.99901 3.96985 37.6495
1 24.2257 39.2646 37.5876
1 46.424 36.0267 22.6401
1 22.0865 11.1499 43.4607
1 12.5765 0.23734 2.2862
1 29.4236 41.1054 46.3
1 5.84698 47.4571 44.2706
1 26.8033 20.7444 13.7199
1 16.9217 6.16277 23.6388
1 25.4233 12.7646 19.2768
1 38.2843 0.399942 9.75167
1 45.3551 22.3781 12.0193
1 22.4964 39.1723 5.86062
1 42.8597 5.25465 17.4011
1 41.4472 14.1784 38.0078
1 0.772885 36.0887 13.2989
1 36.7006 20.6079 36.7878
1 7.87467 47.2103 36.9133
1 36.4976 19.1419 10.52
1 44.04 16.0028 10.3367
1 41.6672 4.23213 1.6791
1 20.6986 41.2585 40.1243
1 10.6964 10.6196 40.446
1 30.2921 16.16 11.4333
1 16.3345 43.9891 7.42126
1 43.2742 13.5746 43.0141
1 46.4881 17.0056 18.108
1 5.48019 17.291 35.3518
1 30.2482 24.1265 49.4083
1 27.9987 46.6896 9.78713
1 22.7842 38.4059 28.0889
1 44.9042 34.2234 35.5237
1 35.3578 39.6204 5.65302
1 9.09517 17.9775 14.2157
1 22.8846 46.9112 40.7309
1 23.573 10.8744 4.81929
1 10.8919 20.8253 2.35649
1 6.79405 19.4212 3.91205
1 21.6134 44.9532 20.9115
1 38.012 1.67663 31.5397
1 13.9753 37.8958 15.8256
1 16.2568 2.74982 35.2465
1 20.2081 35.3804 25.2175
1 21.6258 25.0846 5.42887
1 48.3304 38.6662 33.4529
1 41.9089 23.3561 9.45292
1 12.3666 1.87298 45.9814
1 7.94944 39.0713 12.7426
1 23.8465 24.1041 12.9017
1 35.4315 32.8401 32.2404
1 13.0378 7.54469 38.1949
1 25.6649 46.9635 44.2709
1 40.4671 45.0851 30.6182
1 8.58643 46.2508 41.0745
1 10.9693 27.5661 17.2481
1 44.4275 10.6355 11.1026
1 1.01925 6.68381 6.98452
1 26.2831 29.5092 2.52963
1 30.9452 29.33 31.2556
1 31.6168 31.4337 40.8608
1 16.1152 11.4945 23.4465
1 14.9872 40.7546 18.4085
1 7.21409 34.4519 14.9283
1 16.7113 4.72186 43.8908
1 31.2057 22.8773 47.075
1 49.0955 36.9449 6.19664
1 41.3645 17.0513 49.3873
1 20.3819 10.2336 19.7088
1 43.2655 42.9267 25.1131
1 42.0171 22.3101 23.7138
1 49.1484 19.5878 17.8201
1 25.252 41.9724 47.5714
1 11.8103 22.8562 27.3019
1 32.5369 39.8847 15.6252
1 1.06113 14.937 31.3252
1 13.0268 31.8601 35.3108
1 47.6315 32.0936 30.399
1 32.517 32.5157 45.3119
1 12.6544 37.0555 23.5037
1 19.3332 13.6915 10.59
1 7.38633 10.8852 39.0782
1 6.03255 44.912 19.2068
1 16.8586 41.1681 23.7584
1 9.63147 16.2143 3.70596
1 48.9136 8.7858 6.21424
1 25.3932 13.468 6.43937
1 21.1854 17.1173 39.8728
1 23.5379 0.623708 19.3768
1 13.5774 47.6501 40.5044
1 2.37547 41.0036 14.7327
1 4.75624 2.48817 38.6151
1 19.2506 7.67454 4.89256
1 9.8324 28.8876 2.73162
1 38.9898 19.3973 14.8951
1 11.3464 39.6996 46.4884
1 9.88739 6.45385 30.9897
1 20.398 12.3268 46.6481
1 2.49259 28.0863 46.9373
1 35.8217 12.8924 41.5428
1 13.1106 11.3241 26.0639
1 44.8179 11.0471 18.6576
1 20.5343 19.221 36.3299
1 48.0207 15.1508 34.8682
1 18.2975 8.44257 44.87
1 34.1334 19.6633 49.0773
1 18.2801 14.0594 19.4934
1 45.2844 1.92316 33.3118
1 25.5929 14.3318 10.573
1 15.5063 2.14347 28.7528
1 11.9892 1.41147 13.3711
1 5.82409 12.6822 42.8798
1 20.8895 19.6437 17.4734
1 44.8788 41.0676 24.2834
1 9.46397 43.565 37.2779
1 48.4421 40.8095 49.466
1 3.34713 23.8815 7.25525
1 5.01383 12.0764 38.898
1 49.4685 19.9216 28.4216
1 13.5065 13.8337 14.4498
1 37.0255 14.6071 11.2055
1 31.9706 15.8701 32.2476
1 31.5081 4.99281 36.4071
1 15.7998 44.1839 24.3209
1 41.5734 30.4907 19.0452
1 34.7148 23.8452 30.1697
1 33.8924 44.2968 29.0366
1 28.9192 12.7844 32.9945
1 15.7159 34.3492 14.4106
1 44.3023 12.8085 5.21404
1 23.641 19.1839 3.21355
1 11.9719 8.00951 40.5464
1 14.1165 43.2659 26.5147
1 49.2743 11.1919 30.5276
1 5.40091 14.4319 37.2083
1 44.6678 18.3637 16.1193
1 6.0497 48.168 38.4671
1 31.1354 28.2829 11.9694
1 17.131 13.5116 12.3781
1 32.0414 11.9062 23.8502
1 0.688801 39.1239 24.9842
1 20.146 45.5371 27.7479
1 24.8975 0.918607 23.5632
1 44.9524 17.276 36.7804
1 44.4145 9.8837 21.4561
1 41.3991 16.4137 30.3696
1 2.6475 32.3324 26.5117
1 49.2872 36.0277 27.8145
1 29.0782 18.896 23.9084
1 15.0262 26.1629 21.9954
1 13.7484 10.4643 30.9154
1 29.2693 3.53665 3.92986
1 21.5655 30.4552 30.5344
1 42.6027 41.1043 12.3883
1 13.6763 36.1457 13.691
1 33.6067 13.3073 35.1576
1 47.8361 40.6924 22.7269
1 20.4392 11.2965 14.1474
1 39.3336 34.5802 5.90945
1 4.25377 41.9154 13.0077
1 4.52272 16.5725 40.7559
1 13.8148 17.6626 10.3668
1 18.6489 47.3365 11.9618
1 29.673 41.5979 11.6532
1 0.703414 23.2406 21.2065
1 17.7368 47.4495 38.7953
1 45.6912 4.70499 34.5242
1 27.3441 1.73234 3.02456
1 35.0878 41.2925 37.477
1 26.0967 2.83551 12.1922
1 43.0663 22.2255 7.41612
1 7.13659 24.5535 11.1452
1 46.7508 15.1751 -0.0336147
1 13.7479 3.79825 6.68346
1 18.8499 33.7109 47.9772
1 34.2992 44.6179 25.2206
1 38.3361 30.0694 34.7389
1 4.1491 15.868 33.1777
1 7.24736 20.7818 19.711
1 9.37048 3.00377 10.5837
1 3.31524 17.1775 47.204
1 12.9276 11.2506 15.0054
1 14.9657 32.2092 48.8028
1 28.9803 21.9088 28.9581
1 45.0694 46.9414 13.7787
1 22.2584 22.4402 8.44641
1 21.4862 39.4442 8.43162
1 24.7204 26.2901 41.385
1 13.6823 37.7057 39.5498
1 24.2054 3.70229 40.1856
1 9.72752 9.23599 24.4264
1 36.9444 4.5422 39.9592
1 36.2076 39.8204 1.29317
1 10.4978 37.9244 34.9766
1 21.8511 47.6997 10.0625
1 48.4186 22.2314 49.2054
1 49.0803 21.2874 6.2046
1 13.9483 10.0205 17.9854
1 21.3705 0.0801219 26.2884
1 34.4511 27.1708 35.7619
1 44.2568 2.50631 44.6666
1 15.73 44.2454 21.5673
1 14.162 16.0532 27.5877
1 2.52842 48.8487 2.39534
1 46.6935 18.6015 13.3518
1 8.63627 17.4295 26.207
1 11.2391 35.1792 46.0243
1 35.2046 15.2396 42.749
1 47.1062 26.0308 24.2414
1 13.9834 41.4963 4.85432
1 22.3181 32.7227 5.71089
1 15.885 28.1627 27.8372
1 42.4731 15.1046 1.20888
1 1.82514 23.3012 41.4337
1 18.1274 45.514 18.3647
1 9.73443 16.7487 29.5738
1 49.5257 18.5637 24.402
1 38.8107 31.8572 40.5032
1 34.2726 14.9986 23.6529
1 27.0915 26.316 35.3797
1 18.959 16.9201 6.87832
1 41.6462 35.8867 12.2393
1 20.0702 9.73276 22.5671
1 10.4554 24.1602 3.58254
1 17.1429 38.3779 33.6797
1 8.34096 0.0765222 0.386138
1 28.2894 37.3589 10.3065
1 11.8759 4.67914 44.5107
1 29.5784 15.2346 39.2957
1 14.562 9.48635 24.8765
1 11.3635 47.9987 16.3862
1 11.2126 42.9537 44.7709
1 43.3135 30.4494 27.2207
1 31.4913 42.4285 6.33664
1 12.5312 38.2216 10.0289
1 2.12177 40.4475 18.0229
1 22.5643 37.8318 45.9834
1 21.6524 17.0512 17.1877
1 19.4579 27.9848 32.1886
1 10.5246 17.6826 39.7582
1 31.2191 28.3424 37.066
1 36.8432 48.1724 16.1994
1 44.2007 35.7915 8.17648
1 14.3593 40.9219 13.3799
1 17.2266 14.8756 39.411
1 21.3162 25.9985 41.6943
1 46.7718 1.41861 43.8589
1 23.076 26.6353 19.0693
1 6.01666 36.4511 3.90586
1 27.5373 48.0258 25.9559
1 10.0366 22.2842 13.5491
1 39.9794 26.6529 17.1977
1 1.0511 27.7873 25.4997
1 8.26726 23.5727 28.8218
1 3.17428 2.39344 18.0936
1 25.1208 9.40881 47.7014
1 13.8652 17.6556 36.2538
1 36.6908 23.0536 8.7594
1 25.5947 45.9811 30.5224
1 4.1428 13.2223 46.1743
1 37.2176 32.7175 24.0197
1 17.0807 10.0366 0.235395
1 3.82844 10.1706 8.59382
1 27.1879 31.3555 45.7851
1 6.26546 38.0465 36.6285
1 27.4059 16.1092 21.9532
1 17.9991 41.9692 20.3364
1 23.2294 3.17806 18.145
1 10.9092 30.951 26.7099
1 36.771 39.085 27.0895
1 2.52512 12.7247 25.3254
1 30.2343 4.88462 29.5375
1 39.4515 14.4563 39.4686
1 45.9978 26.1551 42.6621
1 15.3642 7.30968 3.66244
1 8.21945 8.00808 35.0432
1 41.7834 0.854609 25.9695
1 28.4883 5.12112 14.6657
1 14.0678 34.1942 10.0275
1 20.3813 12.0906 35.5784
1 31.1529 39.9219 18.0661
1 8.49678 12.6942 6.94928
1 4.53037 18.1376 23.2644
1 1.87605 13.9084 19.8138
1 25.3092 21.0252 26.7268
1 49.5647 10.9261 21.9612
1 19.5471 14.9256 29.9784
1 33.18 45.9771 3.02644
1 12.7522 33.9357 29.4269
1 18.3896 28.8203 20.5864
1 8.18789 38.1671 17.1247
1 42.1451 31.8682 37.6148
1 21.8624 5.93311 43.9623
1 34.4622 18.6961 8.56574
1 37.4942 4.94795 33.523
1 5.96669 49.4744 15.2933
1 11.518 11.1482 18.2126
1 46.5392 34.452 12.7943
1 46.0383 4.21297 15.5607
1 28.2781 7.32324 23.9174
1 4.89751 1.99325 20.295
1 43.326 7.83348 22.7284
1 31.0551 9.683 33.0715
1 6.95157 23.0376 43.0527
1 4.07653 11.6896 11.5462
1 1.17026 1.91939 29.1905
1 15.2015 33.6405 34.1992
1 1.99099 14.6978 43.3392
1 20.3333 20.9632 1.77068
1 10.7582 20.5186 40.0883
1 22.5383 8.176 42.3621
1 34.5531 34.2726 9.31415
1 8.95383 41.4979 0.708259
1 25.0057 48.2021 2.95287
1 32.6562 8.83869 7.94849
1 23.0837 9.95177 24.2327
1 20.9636 34.7005 4.36743
1 20.6216 19.3258 44.5624
1 31.528 42.3151 9.04469
1 47.4144 48.1134 20.7069
1 9.52592 16.8042 18.6492
1 10.374 48.9372 46.7948
1 1.37552 3.72427 16.5018
1 5.01976 8.93292 11.3493
1 32.0331 18.0365 42.9541
1 4.70615 2.81626 12.5198
1 12.1612 1.14014 43.5415
1 12.7662 23.7187 17.1019
1 30.689 11.6253 31.1882
1 44.9223 4.00685 23.6664
1 18.564 22.4155 16.0412
1 47.1843 0.597279 31.9363
1 2.49692 15.1433 22.1791
1 12.3988 46.2893 10.5068
1 12.8597 30.8774 47.7377
1 6.84832 48.4202 34.705
1 49.7615 21.3088 42.3835
1 8.60757 42.1893 10.0544
1 16.5371 45.1763 38.4689
1 23.091 30.342 44.9315
1 3.52542 42.892 16.3451
1 14.3848 49.7084 23.8683
1 39.2377 20.9631 32.7985
1 27.7151 42.177 32.9062
1 45.3084 8.16899 16.1769
1 43.2444 27.4378 20.2741
1 7.58782 15.4465 34.6179
1 23.4724 4.99265 30.041
1 14.3588 0.381688 12.4167
1 0.790404 47.248 35.0365
1 38.4266 24.5668 48.9126
1 28.227 33.9727 45.9303
1 32.0572 2.01716 15.8858
1 48.5457 42.4362 12.5879
1 26.2132 32.1242 6.32292
1 47.9825 5.29883 30.1335
1 13.3963 47.8626 6.67851
1 9.57634 39.5717 23.9705
1 7.67682 26.2544 30.2892
1 1.63426 22.1482 37.3264
1 4.16154 0.688034 28.9726
1 5.12994 38.0465 26.6712
1 20.8603 37.5773 0.456661
1 10.4778 4.81056 24.7926
1 16.0168 10.0667 20.9829
1 25.593 48.7446 19.8463
1 22.5952 3.13954 33.7431
1 4.09609 8.81312 46.8959
1 8.79191 21.4532 46.4375
1 39.2788 23.6208 5.15176
1 30.212 49.136 29.0372
1 13.9022 1.36935 9.89998
1 16.9039 35.3852 20.4223
1 14.913 0.900038 43.0294
1 46.0126 12.4413 46.8452
1 40.2975 0.250279 34.6878
1 41.8239 40.2468 48.3373
1 4.67438 40.5135 42.8678
1 10.1847 42.851 33.6515
1 45.6043 45.6418 37.4273
1 27.8265 3.18793 29.8815
1 33.2985 5.5999 25.3809
1 25.2531 31.9921 39.6644
1 43.9329 48.3361 45.8583
1 42.0082 48.9216 0.0518908
1 26.0201 29.9601 29.8789
1 48.9427 10.1378 35.0313
1 14.3792 0.169815 36.466
1 25.9724 31.2938 36.9008
1 23.8112 18.519 48.6322
1 35.2344 35.2839 21.1648
1 35.2142 25.5208 23.7637
1 8.81935 12.1287 11.2118
1 37.9837 15.308 22.8348
1 45.9117 38.5912 45.9926
1 34.328 32.5177 14.2078
1 -0.0309012 6.81464 25.326
1 27.8522 28.6513 42.2043
1 4.86745 2.1224 47.3134
1 23.8758 45.7619 10.1232
1 3.9185 9.50259 38.3049
1 5.775 16.3492 45.4721
1 12.2895 28.4921 25.5655
1 35.3985 5.79916 37.2902
1 7.92866 43.9307 11.9374
1 49.634 13.302 47.0288
1 44.1038 28.3235 12.9128
1 30.6256 34.887 6.85539
1 4.85266 20.2045 42.3094
1 40.2067 12.6752 7.2642
1 19.0094 21.3168 38.0009
1 7.45685 27.4212 15.5908
1 34.4855 8.81515 40.8394
1 39.6911 4.32024 6.24748
1 32.2388 32.9752 8.16723
1 2.23207 49.1796 41.5016
1 32.7176 40.2679 4.69876
1 21.4921 23.2787 2.45687
1 12.7611 20.0405 27.1151
1 5.36044 35.9917 11.2034
1 24.8378 21.7046 18.1694
1 14.2555 5.1968 42.982
1 7.52977 9.69975 41.5804
1 6.0612 17.9432 6.25202
1 43.6128 3.04837 13.9122
1 30.1569 11.6992 15.1006
1 47.9771 45.9107 31.375
1 14.754 25.8204 12.2676
1 14.6387 19.7521 13.9204
1 29.3787 28.0249 21.2429
1 34.1598 7.75045 19.9243
1 1.48035 11.7885 8.81874
1 6.79459 16.1063 13.1017
1 23.7569 29.1903 8.51715
1 5.05812 40.8555 17.806
1 41.4864 24.7566 40.4664
1 48.0204 16.7209 9.91238
1 28.4898 18.0531 11.1162
1 24.2165 25.3858 26.7205
1 1.02978 14.6389 39.1586
1 39.5934 38.3942 18.1999
1 31.9025 12.7427 2.96158
1 49.1516 38.0885 49.3871
1 48.5266 26.1161 47.1529
1 42.3604 1.22053 2.74073
1 6.34817 18.6055 43.9675
1 23.7693 33.3228 26.8163
1 5.02133 9.08241 43.3093
1 29.4338 5.0264 22.8244
1 43.1788 26.2789 28.6116
1 32.3027 31.3054 20.222
1 16.5647 18.492 3.68952
1 35.5123 32.7788 16.7476
1 12.1541 25.2791 24.195
1 47.7161 26.794 10.8703
1 40.5401 13.2779 2.84351
1 48.7695 18.5416 39.4136
1 12.0389 9.45499 32.7742
1 13.3738 30.6901 44.9621
1 6.71106 42.9083 38.7307
1 7.32168 39.2034 0.115857
1 7.33879 6.85568 29.2429
1 42.5898 4.42537 37.5141
1 20.9819 4.22264 35.78
1 37.1622 0.603468 6.88813
1 12.4666 3.37561 38.2776
1 16.6647 12.4925 14.7412
1 35.7353 42.9767 46.0462
1 24.1257 48.4073 16.112
1 7.89647 3.77222 15.3044
1 49.0939 17.0821 49.2881
1 18.3783 45.2112 21.3911
1 16.3813 1.22283 32.896
1 30.8525 31.6937 9.78518
1 37.5871 26.5437 28.1729
1 26.4243 23.3657 13.7292
1 22.1256 9.87289 33.6425
1 8.74444 40.0752 46.0524
1 15.5529 37.6301 5.82688
1 7.84449 47.8157 47.9646
1 6.37355 27.3938 44.3973
1 45.8467 45.5539 16.3028
1 9.69586 28.9007 21.4884
1 1.7966 32.2131 19.694
1 14.485 0.558357 4.85941
1 6.09596 40.3 6.75964
1 1.66071 17.5978 7.79769
1 11.4638 22.2257 10.4516
1 27.8391 16.2769 17.6482
1 33.1261 43.3945 18.0366
1 14.2565 12.4544 33.1275
1 23.5489 3.03736 46.9501
1 11.5517 6.79608 16.522
1 40.8255 17.7968 7.99186
1 4.52409 41.2669 38.7549
1 34.3627 3.84554 35.3566
1 27.2796 26.7904 16.9348
1 4.71766 20.4158 46.1452
1 46.6578 45.0915 44.3761
1 38.3733 27.1485 38.0027
1 10.4131 48.3145 40.6245
1 47.9053 3.16008 46.6982
1 13.9931 16.264 42.7267
1 5.97046 24.5667 6.51313
1 7.79732 6.88172 42.2387
1 45.8199 48.9021 7.33546
1 8.8283 35.9724 44.6909
1 26.9168 41.4495 19.7687
1 38.1223 33.2682 11.9289
1 8.41994 41.7439 23.6195
1 23.5752 41.1754 24.6851
1 30.0333 2.31496 6.33223
1 15.7111 38.4231 27.2877
1 49.3677 12.2629 19.6385
1 10.7521 25.288 40.4378
1 40.016 42.7001 5.4971
1 30.5769 23.7335 5.05687
1 33.1423 17.1499 11.1367
1 44.9145 5.25643 0.363905
1 33.2503 10.7065 3.68757
1 11.1465 23.6041 42.318
1 9.95237 28.5089 8.91394
1 44.498 31.4748 1.28102
1 46.2917 46.9555 48.559
1 1.2464 3.61025 43.4555
1 10.5781 11.8698 24.7419
1 34.4262 30.8131 41.5682
1 18.5494 38.0365 27.7469
1 41.8591 35.3721 41.3619
1 25.809 30.2735 41.6635
1 34.7846 28.5999 29.3495
1 23.7737 0.750264 6.64053
1 11.3505 5.46332 6.68991
1 23.3735 17.3229 29.3251
1 9.31813 12.37 2.31244
1 8.88924 5.57312 3.5589
1 41.4006 9.00131 14.2927
1 14.2738 39.4676 1.71864
1 29.5401 18.5235 37.8033
1 36.045 17.7529 42.7846
1 20.8152 12.7877 49.1583
1 46.0167 18.3759 46.7532
1 38.3795 21.11 9.5251
1 42.5179 12.2272 45.0559
1 29.6674 10.8852 28.2818
1 42.872 1.91905 35.925
1 12.1942 19.7028 11.7089
1 30.0376 40.3618 30.9503
1 34.1902 22.786 42.4482
1 41.706 28.151 42.2846
1 41.3371 7.56132 29.3782
1 17.531 19.3203 7.06907
1 1.21848 35.0721 33.1516
1 30.2256 8.81783 35.812
1 6.18569 17.3077 38.2494
1 44.5257 43.7867 0.106657
1 37.5473 -0.0455852 26.0208
1 25.0586 21.8976 9.68129
1 44.676 39.9058 37.2029
1 29.3546 34.2684 3.03046
1 41.7566 27.3658 7.21869
1 1.37193 9.27646 37.9308
1 14.2298 12.2945 47.2976
1 49.1073 46.5533 18.941
1 40.8819 43.3944 11.9931
1 16.584 33.406 47.085
1 11.0271 14.153 3.15717
1 28.9776 30.4094 49.6461
1 7.91436 20.4799 1.1644
1 4.64377 30.081 41.2381
1 2.44799 8.69562 49.3105
1 10.0079 26.5258 28.5441
1 10.3568 13.0384 35.1822
1 33.4583 12.2215 46.4738
1 1.48 46.4364 45.5485
1 19.1968 40.9596 25.2657
1 14.4616 29.3816 22.205
1 7.53987 5.37898 45.7302
1 45.8827 1.67675 21.1524
1 11.9461 40.206 36.9187
1 30.6962 19.1467 14.1296
1 18.2763 5.67177 37.6108
1 19.7869 8.87898 35.3893
1 36.3084 11.4671 30.2084
1 7.62887 5.6796 26.6784
1 15.784 17.8353 16.0384
1 9.06363 14.441 25.9397
1 18.4622 43.6828 45.9195
1 20.6344 26.3891 21.7125
1 25.8866 12.6726 29.5369
1 33.6665 18.1015 33.3228
1 37.4162 37.4213 33.0686
1 30.4082 24.1646 37.6118
1 13.365 9.14848 28.0454
1 16.9731 7.75793 9.64018
1 16.6579 12.9838 1.17849
1 43.3273 47.1942 48.347
1 49.6067 47.912 37.4115
1 40.4304 25.4535 34.6272
1 1.38299 4.03135 48.7728
1 5.71646 42.8345 0.0962125
1 42.4658 3.63877 27.1881
1 32.6788 26.3607 13.2416
1 25.822 39.5807 41.1619
1 49.4394 5.09173 41.6462
1 32.0758 25.7212 0.717766
1 3.68831 32.9742 37.1589
1 45.8574 12.4168 37.1885
1 18.5348 21.7711 6.02367
1 33.889 6.02228 48.5455
1 14.5141 1.66102 31.1977
1 48.9672 34.653 11.4623
1 25.327 28.6321 15.6059
1 46.4275 13.0716 7.2574
1 13.3932 26.5357 40.4915
1 46.3795 35.04 30.6216
1 9.24281 21.1372 34.4034
1 9.91784 38.0383 21.8084
1 24.4035 39.0989 34.7182
1 19.7335 32.0944 13.5903
1 2.9061 3.47942 40.2081
1 33.9342 15.515 0.926564
1 19.3345 34.1674 2.12907
1 14.1887 8.99345 5.55826
1 1.99427 45.8908 24.8126
1 6.19093 5.25831 40.607
1 39.3855 42.7792 20.7466
1 25.1069 6.73781 48.0672
1 37.5543 11.693 14.7978
1 14.7175 29.1072 7.91684
1 10.6584 5.83474 20.1113
1 48.1303 37.3563 46.8555
1 1.09997 24.1959 16.5866
1 4.73015 18.4649 49.1538
1 8.14244 39.3336 10.135
1 21.1482 13.9821 6.69335
1 17.625 21.5126 1.5651
1 31.5417 43.0793 29.106
1 34.4258 39.89 44.7384
1 2.48006 34.8574 45.6354
1 42.6154 17.972 18.0755
1 15.717 36.0384 46.8367
1 15.08 1.96853 46.9282
1 7.42195 6.57449 48.0565
1 20.8197 6.54059 48.2372
1 9.42072 36.9584 9.8696
1 16.0639 24.8043 1.82197
1 39.4771 35.0934 33.1156
1 39.0606 6.61523 44.5056
1 6.40111 42.8577 35.4817
1 4.99148 4.14686 9.56849
1 39.8666 12.4981 29.1446
1 46.9953 2.22271 41.2208
1 9.25995 29.6539 35.7022
1 9.00225 29.1665 27.6479
1 49.0084 14.5766 16.6637
1 23.3569 34.145 12.8441
1 1.81972 32.3089 8.53015
1 3.84196 24.7475 25.9468
1 44.7569 19.3681 29.4872
1 45.9808 31.9442 14.9025
1 12.6452 19.4857 32.5781
1 4.03803 40.7396 10.4319
1 40.6951 27.4099 28.8737
1 4.27914 44.8004 41.6481
1 44.4124 46.3486 18.3785
1 17.2393 13.8416 31.135
1 12.5826 42.0261 33.1498
1 34.3293 21.9239 25.652
1 44.2133 20.404 13.5372
1 27.6053 5.86953 38.0052
1 37.6099 22.9559 3.39201
1 46.2816 10.3799 16.5666
1 43.7231 11.63 24.1312
1 13.6861 40.6221 8.87651
1 21.4266 49.8025 21.2162
1 40.6992 40.7586 19.2914
1 17.5138 15.741 23.6503
1 42.2895 48.0565 41.8823
1 26.9774 46.4646 35.7088
1 40.4288 33.3756 3.86204
1 32.0037 8.76958 39.2003
1 5.09012 7.07483 26.325
1 28.3032 13.5552 40.9977
1 36.5424 34.5194 5.94227
1 44.5641 38.2726 39.2549
1 49.1112 2.94576 23.1497
1 15.2598 39.8893 45.2455
1 36.1689 35.7369 3.5798
1 23.6567 22.2558 48.9118
1 34.013 46.2035 31.1763
1 15.011 30.5231 10.9136
1 49.4645 26.74 20.0894
1 34.7066 47.2047 38.4872
1 24.295 16.8925 46.6318
1 1.79678 3.74163 12.677
1 16.7971 23.7365 14.404
1 24.6285 20.0277 40.374
1 42.6103 26.1706 25.9943
1 2.52724 44.7669 22.5528
1 29.0052 45.8045 12.5939
1 48.0175 4.53606 39.2533
1 42.6179 47.8033 16.8594
1 46.2739 32.452 10.3001
1 36.9305 44.5277 44.3595
1 47.291 35.935 25.6743
1 31.353 43.8874 45.1717
1 17.0298 48.9744 30.2782
1 33.5209 2.76932 0.982618
1 2.54732 23.2018 13.4508
1 22.7318 34.825 46.1965
1 43.3546 21.9683 15.7595
1 48.2034 13.1566 28.8236
1 7.34944 17.4208 1.95076
1 44.2992 32.0805 6.67554
1 38.295 41.6036 0.529019
1 14.5035 6.52088 32.6012
1 5.48818 13.1147 9.65956
1 23.8821 29.6682 21.9667
1 29.7877 21.7074 1.06584
1 15.3253 11.8007 36.2471
1 28.1559 49.517 18.6711
1 0.953784 40.4871 36.3456
1 13.4547 46.2053 23.8511
1 48.6691 28.2385 24.1611
1 22.7482 31.4225 47.6309
1 32.7671 29.9223 10.7563
1 24.4247 8.98291 14.7178
1 6.37108 46.0982 49.6359
1 44.638 44.7414 26.3018
1 24.1217 14.3175 33.3112
1 46.4329 48.8738 44.771
1 25.5281 7.72092 24.6111
1 24.0496 37.8637 40.0543
1 32.2353 8.27336 17.4415
1 7.13936 1.43339 11.6836
1 8.5911 15.0879 31.9325
1 25.3824 4.98615 5.69885
1 23.0674 13.9185 15.1417
1 10.4962 47.0219 14.1275
1 7.32839 10.7917 20.6636
1 48.2247 23.8112 17.6421
1 26.6017 11.3839 21.1777
1 9.39211 7.96284 13.2712
1 11.2856 34.1564 36.999
1 41.66 20.7837 42.4175
1 32.0817 10.8206 48.5877
1 44.8005 47.9758 36.194
1 10.6493 47.4913 20.1439
1 33.8849 43.7268 1.57442
1 12.278 21.936 33.4499
1 47.3318 15.7736 42.8093
1 17.7432 29.423 17.6835
1 7.02466 38.9311 34.09
1 37.934 46.249 14.907
1 47.8865 30.7903 9.01215
1 7.08057 19.9718 48.1039
1 18.2971 31.7781 28.0916
1 21.4264 16.9192 45.8803
1 23.1072 33.8807 0.836066
1 8.61415 34.8589 19.613
1 15.2176 24.833 16.1391
1 16.6331 14.3668 25.4642
1 17.5499 13.0467 34.0758
1 33.6931 38.0723 27.6544
1 3.92637 28.6851 37.0847
1 17.6761 45.2474 15.628
1 43.7891 19.9063 32.2773
1 42.3361 27.0104 37.1529
1 10.7114 37.5825 0.346526
1 37.818 25.7207 42.289
1 38.5963 0.485534 4.32716
1 41.667 8.00822 35.9479
1 7.74094 42.4353 47.4107
1 40.888 5.84148 26.9829
1 22.294 0.335232 46.8953
1 7.59427 9.17889 6.88578
1 22.9846 36.6858 4.72482
1 24.1194 49.576 37.6159
1 37.2399 15.2292 33.7375
1 1.25364 12.5029 5.91069
1 7.19128 3.1486 27.3767
1 14.9691 14.979 4.21386
1 43.3297 43.8951 40.9173
1 49.2033 33.1313 41.9372
1 41.7888 17.0615 44.9892
1 3.38394 37.8188 16.6291
1 8.83104 6.04383 0.913828
1 42.8315 33.4474 18.583
1 12.1003 35.1031 32.6966
1 18.3858 37.8089 6.70675
1 4.18852 29.1288 14.6937
1 36.3026 49.029 22.3734
1 31.4859 18.5717 30.9792
1 34.8047 0.742277 38.8645
1 17.7115 16.9003 47.3554
1 26.1032 24.358 45.0047
1 44.1749 28.979 36.1058
1 8.04947 49.7108 24.6491
1 37.3777 49.0353 32.6465
1 32.3494 10.7221 20.7322
1 5.70005 42.8462 6.12653
1 18.9494 33.3404 23.9654
1 35.5765 47.4812 18.543
1 6.68962 27.2714 6.85221
1 12.3493 15.4917 9.99683
1 8.06831 33.1104 30.6028
1 34.1579 1.03206 29.2288
1 16.4325 10.4296 47.4942
1 17.8357 18.5492 32.4907
1 43.5769 48.5026 21.7103
1 17.9924 23.071 36.1494
1 18.6493 23.398 27.282
1 7.9493 48.6872 8.82419
1 45.1192 27.13 45.121
1 35.8369 24.6776 10.8165
1 2.06318 28.1883 1.5891
1 21.7701 24.825 9.98972
1 9.72888 6.6213 44.4638
1 25.2822 11.8552 25.6145
1 31.4499 0.509065 24.6872
1 38.2343 3.5907 24.2379
1 10.9767 0.04315 7.20382
1 38.524 19.0361 22.8704
1 25.1697 4.85218 18.7055
1 41.7098 45.9927 35.1801
1 32.8891 35.2813 36.1327
1 20.806 47.5307 5.14952
1 4.31117 33.7161 23.1896
1 4.48751 1.71809 15.0128
1 37.3165 37.1247 21.0926
1 29.1542 38.5067 2.99473
1 48.2686 44.9935 17.1478
1 30.1589 2.65146 39.8803
1 43.5964 39.924 10.3262
1 14.0558 21.1999 46.1571
1 37.8184 18.2863 46.7248
1 0.0726036 37.3407 23.0303
1 18.8037 37.5758 9.81749
1 16.4674 10.0146 13.1136
1 12.5453 46.5104 37.4983
1 43.9406 13.6064 21.3852
1 27.3632 3.79143 16.8997
1 29.6307 20.9575 45.5952
1 47.8813 35.1235 15.0069
1 41.5068 14.5027 28.3733
1 34.9576 25.963 4.71003
1 26.0195 0.191659 10.4413
1 8.77407 23.206 6.55682
1 25.8426 29.9502 17.8957
1 17.083 35.5146 34.837
1 14.538 31.0958 20.0365
1 6.46962 8.01496 13.2918
1 36.1909 41.5444 7.02068
1 47.2733 37.7861 29.9762
1 44.3938 18.5004 22.4388
1 17.6253 25.7685 49.2899
1 13.1319 2.29995 15.7369
1 22.8373 43.2354 46.7799
1 31.404 35.6401 18.6153
1 35.9193 31.7864 47.5003
1 22.3549 5.71046 22.3267
1 45.3218 30.6952 42.3311
1 17.0172 29.1002 41.5428
1 31.0502 23.7079 23.1021
1 2.99853 36.9653 34.1132
1 3.54031 45.1141 48.1278
1 0.277757 19.3428 32.1435
1 37.1211 34.0324 1.39961
1 3.59253 23.0881 10.4935
1 17.0463 35.3353 10.2956
1 0.523828 30.6209 4.90218
1 22.092 27.4041 27.7376
1 48.7376 27.3408 31.1988
1 9.22096 4.47513 7.72636
1 28.0398 45.6232 20.3994
1 16.8091 4.1057 16.1479
1 4.99104 2.23773 22.9421
1 13.8622 21.9333 5.27867
1 34.9286 30.7901 11.8409
1 18.1614 20.0536 48.0557
1 23.348 34.2056 22.7272
1 5.22449 23.8459 4.08795
1 20.2248 31.3609 48.6083
1 8.42031 38.1623 26.072
1 27.6996 38.4862 12.9153
1 42.6949 23.2469 42.5143
1 29.219 39.4217 7.05309
1 26.2658 49.065 42.2433
1 31.514 45.1466 22.0217
1 8.04679 42.9975 15.5613
1 16.726 41.0624 36.8043
1 20.4759 46.6289 7.62274
1 22.7296 4.37706 25.7693
1 19.9497 11.3628 41.7934
1 36.115 11.5958 49.1833
1 2.39217 47.0627 4.80621
1 16.757 29.6009 25.2429
1 49.2797 0.971875 17.0208
1 19.476 12.9086 38.441
1 38.7027 17.43 34.8062
1 25.0533 32.2802 2.08309
1 46.426 43.7748 2.92646
1 40.7633 20.2105 26.5987
1 32.0019 46.1677 43.9196
1 39.5379 30.9359 0.601594
1 45.7647 48.5271 2.32169
1 42.3155 42.571 18.0727
1 39.3922 33.7292 30.7754
1 44.6726 49.5582 27.4759
1 39.7348 20.0115 28.9341
1 8.21017 45.8112 14.1883
1 45.4719 16.2842 12.7817
1 42.4788 43.2825 34.8072
1 18.2112 25.5818 8.62853
1 46.7291 5.37082 42.6787
1 48.6063 22.1128 44.7978
1 8.4563 14.4413 18.3719
1 49.398 7.05533 22.5108
1 10.7159 19.5931 16.2241
1 32.642 5.24244 28.3074
1 24.5311 43.4654 6.96273
1 39.5081 45.1544 25.5787
1 44.018 24.6196 15.7187
1 8.40809 39.6838 5.12178
1 1.57318 20.9197 30.1401
1 15.3868 31.6852 27.6192
1 45.5801 22.5879 22.8883
1 24.1038 44.692 44.3682
1 28.143 35.877 24.1438
1 23.2484 13.615 27.39
1 28.176 30.9455 18.2994
1 14.9052 26.9694 6.27027
1 18.0001 30.3286 44.8518
1 22.1683 33.2885 29.1724
1 8.09761 21.5967 31.8521
1 47.1972 48.2248 23.723
1 3.81643 12.5629 22.7056
1 12.7392 47.8521 48.6435
1 2.57937 16.5442 38.204
1 44.9205 15.8497 25.4381
1 33.6303 38.4187 46.5405
1 34.7092 26.8309 26.9675
1 7.25879 5.53917 10.2478
1 3.61705 47.9496 48.261
1 16.1633 33.0139 37.313
1 38.6979 4.63165 28.6388
1 45.0456 35.1 49.0266
1 6.50477 6.82902 19.4787
1 20.1631 26.488 35.0295
1 4.66159 11.2446 20.5376
1 36.2321 24.1583 17.2762
1 32.2776 35.1287 26.7786
1 0.0607774 38.8504 27.7516
1 44.2172 33.9809 14.6983
1 26.1199 13.7693 37.4591
1 36.7581 32.8035 21.5337
1 45.9281 29.6598 44.8198
1 38.0157 37.2669 25.2093
1 45.8468 36.4149 18.6528
1 27.4183 42.7374 10.6324
1 41.4886 32.5178 40.3042
1 35.7426 9.93567 20.8019
1 12.8522 35.7929 35.3981
1 30.1951 48.1961 26.434
1 49.4401 31.7896 7.21446
1 28.2621 34.4373 11.0204
1 21.5089 11.919 11.3553
1 35.6618 47.4711 41.121
1 8.92362 27.1569 10.8925
1 7.70156 35.2057 38.3862
1 41.8169 44.4454 4.33941
1 36.5368 34.9612 25.3552
1 3.72731 12.742 30.0174
1 9.39061 41.2396 19.1522
1 12.4994 20.8965 21.0656
1 35.6266 5.46011 15.3234
1 0.3487 39.4777 40.4677
1 15.0977 27.0189 14.7026
1 1.24637 24.9348 24.8164
1 30.5811 35.4264 38.9716
1 38.304 10.0795 4.7695
1 21.1041 11.4348 3.23544
1 13.8806 7.14104 18.8555
1 7.66978 43.4385 44.4656
1 34.143 34.1952 44.1948
1 2.69489 32.4236 49.539
1 0.176901 21.616 14.2987
1 19.4853 26.4352 37.9769
1 18.7112 44.5982 11.0524
1 4.81236 5.15002 36.1089
1 47.364 42.524 25.3192
1 14.7013 34.2443 31.4512
1 14.067 35.9355 20.0655
1 45.8257 18.9242 1.73898
1 7.28379 2.55949 24.5266
1 48.0632 17.8537 15.8508
1 27.4833 47.6421 1.67532
1 11.1741 3.83111 12.7958
1 6.2487 24.9083 40.9481
1 40.4796 39.4404 15.7231
1 44.6538 10.4828 39.6103
1 41.8023 23.6041 1.46115
1 12.4565 38.3038 20.4565
1 29.6156 6.04981 26.7389
1 15.9798 29.6338 30.3
1 14.6165 44.4355 0.374128
1 13.1844 30.9934 3.71795
1 41.2775 32.2738 48.9172
1 29.1072 0.538107 21.5775
1 17.701 36.8911 38.8104
1 30.1466 39.4586 9.58244
1 49.6426 10.9351 13.6829
1 22.9878 11.1243 15.7288
1 41.2053 7.39321 18.4634
1 45.5668 8.02597 43.391
1 27.8223 22.7531 37.1303
1 2.47671 34.8874 8.88759
1 24.2121 12.416 1.72095
1 28.9836 26.4124 28.6903
1 49.164 9.01145 49.2423
1 4.22356 0.579438 7.62067
1 1.63714 4.77526 22.1941
1 2.24977 4.86887 19.6719
1 16.5522 36.3221 31.382
1 28.9961 3.04439 32.8638
1 41.6161 40.3527 26.0635
1 15.9972 37.6679 2.87611
1 46.4317 37.3967 16.2037
1 8.82553 48.0589 3.56596
1 23.8519 4.18575 44.3093
1 41.2662 23.0164 27.0077
1 36.839 1.50728 2.58882
1 0.865736 40.9697 28.9471
1 40.845 0.0177799 20.9672
1 4.56439 40.9474 2.92923
1 44.5271 37.5015 43.8904
1 33.2108 1.84909 36.8151
1 30.9901 4.09166 14.0035
1 14.4629 37.394 49.0598
1 18.6397 25.3206 42.3215
1 48.051 6.92192 37.6645
1 43.8972 17.2275 29.0253
1 26.4383 33.7831 13.278
1 32.5812 32.5441 36.7223
1 10.9851 17.9559 43.7992
1 6.34808 31.9994 32.9234
1 12.5648 41.9704 47.7374
1 14.2409 22.8551 34.9936
1 1.60949 12.328 32.4315
1 46.7599 47.2428 40.983
1 18.7466 2.29521 31.7577
1 26.8233 28.9102 34.2707
1 32.4213 26.0342 8.40663
1 39.6202 18.3701 38.6344
1 22.3955 1.3549 28.3912
1 10.6826 31.2517 33.7222
1 11.211 26.6626 2.84546
1 32.4865 38.9024 20.1202
1 46.3133 29.3625 40.209
1 26.0589 9.29112 39.1996
1 39.5263 7.13923 5.64708
1 19.549 39.3751 34.4168
1 46.2737 28.9409 16.739
1 21.2334 47.6404 2.27147
1 20.0969 28.3517 4.11388
1 2.7801 46.948 14.4095
1 46.5674 8.54703 11.3335
1 29.9528 36.5823 1.21378
1 23.9148 21.8817 2.33656
1 36.7837 2.25128 35.3835
1 11.791 38.2079 2.67707
1 49.7028 42.7567 43.5279
1 43.0869 46.3776 23.0471
1 20.1279 35.5053 38.8101
1 33.118 0.986676 5.55752
1 12.8066 13.5853 30.3522
1 9.43068 13.342 47.5042
1 23.7237 48.3022 13.4693
1 5.26583 44.5771 14.6409
1 43.7634 49.754 5.26188
1 49.6787 28.0983 35.4905
1 3.48266 17.5657 20.9107
1 6.98231 13.0001 26.4451
1 26.3805 45.6024 26.2877