4096
 Atoms. Timestep: 5360
1 43.5754 38.792 26.4009
1 8.86146 48.9891 40.9078
1 46.456 14.8486 29.1624
1 7.13482 40.7722 25.1055
1 4.70196 37.4807 42.5513
1 1.36801 30.0589 21.8605
1 41.4807 8.56273 36.4524
1 43.3856 31.4256 20.5272
1 43.2919 36.7401 31.0316
1 6.25849 18.551 40.3745
1 45.708 39.8904 23.7729
1 9.9329 15.4265 15.8453
1 13.9423 18.9375 16.939
1 21.0038 5.90782 15.6919
1 9.7488 32.1696 1.86148
1 36.3148 41.5367 40.4484
1 5.49033 2.66283 28.5824
1 4.15974 33.309 12.4732
1 37.437 23.3413 43.9479
1 25.4947 47.434 3.95466
1 38.7643 47.1547 35.9325
1 4.11121 37.6349 5.72534
1 8.11522 21.284 5.57773
1 22.906 35.5869 27.3798
1 4.39685 44.2994 26.3587
1 44.5467 22.4439 22.5218
1 14.6219 44.0401 25.1675
1 3.91426 5.37888 0.436742
1 6.81553 12.5378 13.5782
1 11.2141 1.85249 13.8564
1 40.6264 19.1925 18.459
1 35.49 2.81738 5.28049
1 19.34 24.1751 7.54699
1 15.6542 33.2768 9.83075
1 48.093 2.73942 40.5189
1 28.5667 37.2967 32.9447
1 12.5043 48.277 24.7551
1 13.348 11.8692 15.2425
1 42.2798 2.46506 28.1703
1 42.3616 22.2313 33.7472
1 37.2454 26.6181 35.6046
1 20.5728 7.71315 7.64736
1 30.1008 19.8485 22.3353
1 49.1739 34.9161 16.1173
1 37.2415 21.6586 16.224
1 45.4603 37.775 5.12565
1 21.8214 2.11387 49.2458
1 33.4333 26.8428 48.4346
1 44.3963 43.7815 43.8592
1 28.3468 43.6182 48.7719
1 0.190049 48.6492 39.1005
1 6.09106 33.2426 19.2118
1 19.3395 2.21473 4.10739
1 27.5463 19.5455 21.6039
1 18.3941 13.9792 34.4743
1 0.27497 6.36827 42.6904
1 7.51224 9.90596 26.216
1 47.3589 46.6764 16.824
1 12.8165 22.3652 36.4145
1 8.31973 16.1437 21.5966
1 18.7986 39.834 28.9537
1 18.3167 49.4754 22.4081
1 0.194619 38.9385 26.6692
1 38.2124 25.5132 48.6642
1 37.3951 8.59218 11.5647
1 23.3399 25.665 36.1825
1 0.626724 11.8912 44.6421
1 0.584309 7.33027 5.17002
1 35.1959 22.1414 46.6279
1 32.995 26.0066 45.0368
1 21.132 33.0112 5.82901
1 18.651 33.4814 5.29289
1 5.62272 5.96826 43.7737
1 32.1621 19.0172 1.27056
1 24.4465 14.2538 29.7582
1 47.7802 28.8157 27.4643
1 28.9968 38.6423 17.8279
1 35.4897 1.70716 49.0154
1 8.86748 36.9844 2.00099
1 31.1465 19.2884 25.1214
1 18.6737 34.1773 2.68447
1 34.1578 13.6516 46.2726
1 12.7126 24.0903 29.0527
1 24.4189 15.974 6.47151
1 28.0036 33.966 2.32971
1 31.6173 10.2426 5.68459
1 45.9796 10.5069 48.5988
1 46.3443 12.1333 29.529
1 42.8487 23.3318 19.5732
1 28.5041 42.0804 14.2454
1 39.0277 16.9204 5.27111
1 27.6282 48.5648 5.52102
1 29.7595 2.9931 17.7074
1 32.7384 28.9744 31.111
1 6.07417 36.4638 9.23557
1 36.695 29.1199 46.6485
1 35.4996 11.8605 4.78894
1 20.8549 17.0678 14.1901
1 21.9819 2.93044 23.2852
1 22.1385 28.6369 30.9732
1 22.3247 7.2337 43.136
1 1.79572 15.0737 1.47714
1 6.63961 25.5308 7.67129
1 12.9072 28.6338 47.4433
1 13.9712 40.6039 11.4185
1 36.9248 5.08293 3.09961
1 33.2098 13.8517 6.39392
1 6.38868 46.2715 7.51258
1 36.8635 32.2845 2.56382
1 2.1897 7.63399 31.0334
1 15.5263 12.7661 6.3693
1 27.5644 48.4958 11.129
1 38.9005 41.0899 0.154265
1 11.8841 9.45449 22.711
1 26.7003 8.18523 40.7125
1 33.4009 24.0825 9.09939
1 26.018 6.05908 34.9829
1 43.5402 40.2228 35.4184
1 9.91902 14.0982 5.6174
1 8.77048 20.4933 25.3099
1 33.02 7.3513 42.6448
1 19.843 5.89338 41.7376
1 24.5137 29.711 48.0567
1 29.389 37.6482 20.4067
1 9.54227 48.4922 29.6275
1 25.9573 10.75 1.2992
1 23.4091 37.1122 2.59
1 23.0223 39.9056 29.6731
1 37.3776 3.24231 23.9869
1 48.6564 21.5132 20.2389
1 47.6592 23.0332 40.1111
1 33.4881 25.065 42.032
1 18.1245 19.5437 40.9239
1 27.2471 41.9423 7.28361
1 9.63701 49.2009 24.6101
1 42.4304 24.1083 35.5034
1 7.62951 10.9381 32.8443
1 24.3688 7.36489 28.56
1 18.2021 20.6463 38.2559
1 32.0031 28.5101 44.69
1 40.0149 4.84247 48.8581
1 3.78823 22.2124 25.8156
1 36.1136 2.09723 27.401
1 8.04207 42.602 21.8003
1 15.2124 27.1756 7.56405
1 49.0741 20.0834 24.9626
1 30.6786 42.3456 20.2348
1 10.6346 4.09482 16.7152
1 41.2863 28.8893 41.4729
1 2.3915 2.21827 23.2854
1 21.807 8.27555 48.6074
1 1.34298 8.60312 2.81088
1 25.3143 0.219544 2.5521
1 44.2423 13.234 26.8003
1 30.2959 17.8925 44.6036
1 29.4137 8.95293 36.809
1 29.7156 48.4105 27.1072
1 1.29885 46.0387 42.8636
1 32.8941 8.70475 29.7904
1 4.22485 9.28811 15.1741
1 29.6769 48.9943 30.1757
1 34.3529 7.09937 14.2209
1 24.1359 43.854 49.6338
1 36.9922 14.6461 42.2891
1 42.6954 24.8908 47.2916
1 27.2708 6.23384 32.325
1 34.481 14.9946 32.4332
1 25.929 40.7182 11.4324
1 31.7139 11.002 9.56088
1 14.1785 10.8409 13.0091
1 11.0957 8.33366 2.91837
1 49.0108 37.3595 19.779
1 12.4588 23.9523 18.242
1 29.0619 3.17209 45.0367
1 10.2635 48.2056 16.9133
1 31.3242 9.80767 14.0228
1 39.4039 34.5554 22.1822
1 42.2006 39.1216 3.83661
1 31.8807 29.4754 27.3065
1 13.7612 35.9905 43.0334
1 15.2821 6.67897 1.37656
1 31.2394 36.8969 28.5063
1 8.74061 14.1301 1.11314
1 31.7919 6.52448 38.2815
1 0.503991 0.776585 43.2485
1 21.3591 15.3604 22.1078
1 42.1967 22.2413 30.9546
1 28.6887 24.4023 36.4459
1 32.5128 13.6178 15.129
1 16.4579 46.4916 11.0267
1 4.91615 11.5831 5.60591
1 12.9452 27.888 4.07653
1 21.1869 44.1296 16.8357
1 28.6854 37.3207 29.3637
1 6.03595 37.6126 24.0188
1 11.1857 36.4067 3.02913
1 33.6898 0.314426 7.06077
1 15.0745 27.1754 27.5512
1 43.3736 19.2726 17.6963
1 21.1204 7.76871 11.9682
1 43.4066 46.3587 35.6019
1 2.72501 37.7281 46.3286
1 33.8213 28.1354 15.8977
1 15.0801 5.53479 33.2311
1 11.9274 48.6536 12.5363
1 18.9155 12.9918 25.8236
1 43.7807 32.0036 49.4879
1 33.3183 26.2909 25.3288
1 15.1774 48.9378 35.3795
1 44.6624 21.1033 19.1556
1 42.7249 9.07898 31.6212
1 31.6863 33.0324 19.5978
1 6.09616 6.01522 17.4178
1 5.14316 11.0597 43.0301
1 10.6919 27.5838 11.3573
1 37.5647 45.9629 47.4686
1 14.727 6.2875 23.936
1 13.3653 31.5188 45.7313
1 16.1688 23.4634 6.98617
1 11.9808 13.5985 26.6205
1 24.8028 31.2795 1.57343
1 9.88378 4.22319 13.7264
1 34.5703 49.2712 14.7507
1 26.8577 18.8135 3.58832
1 21.3387 15.6164 37.9211
1 18.871 3.78062 7.8512
1 35.6907 6.97984 20.4414
1 31.3603 1.52779 11.7376
1 42.2412 24.9243 31.6079
1 5.70068 16.1513 15.0511
1 11.2589 15.9726 3.62592
1 15.081 46.7494 6.45209
1 25.0457 34.5852 28.668
1 25.8085 43.527 45.1285
1 19.1113 14.5581 40.9787
1 2.12614 27.2881 24.0655
1 18.2258 5.40375 38.4826
1 9.77172 39.8188 11.1675
1 47.0958 43.9802 9.66713
1 1.12301 35.6246 48.9803
1 7.7297 33.3746 47.9302
1 46.6854 18.5565 23.9026
1 46.6505 19.3475 14.9739
1 48.3607 45.4009 42.8461
1 25.5972 27.595 22.0676
1 6.66834 32.7216 12.8081
1 6.19618 49.5285 9.99257
1 44.1146 21.5531 29.3456
1 27.3049 48.8176 25.993
1 0.391948 25.1097 19.4362
1 43.9586 38.4481 40.0008
1 3.33758 32.0763 1.01884
1 5.73613 48.5588 36.6984
1 28.7979 1.74879 28.9417
1 26.8439 27.967 28.1566
1 37.5935 23.9766 39.4466
1 39.056 43.093 27.0314
1 17.0139 14.8986 3.81666
1 16.9722 25.0343 17.0895
1 2.26754 47.676 9.2718
1 3.95136 42.2364 28.2281
1 18.5302 6.18129 28.1555
1 12.5648 30.3928 5.24991
1 46.6434 39.6988 43.3115
1 14.3048 28.5113 43.0611
1 18.8735 7.89068 37.3935
1 34.0577 31.9998 33.39
1 25.1114 44.7463 47.1671
1 33.6229 37.8644 38.7872
1 47.2858 31.5446 31.9654
1 12.6287 0.0198064 0.65646
1 35.5027 20.0637 37.8134
1 41.8731 10.1709 25.66
1 5.19051 47.8626 27.8442
1 23.8135 2.9032 47.696
1 36.552 45.7715 1.59961
1 31.2318 26.9434 29.0764
1 27.182 29.5032 12.3459
1 37.7675 21.242 26.3438
1 41.6627 14.7997 24.4044
1 47.4587 16.2979 22.3783
1 35.2457 43.7216 2.8927
1 39.482 19.1063 8.96866
1 49.5241 32.879 2.69115
1 17.5095 3.20989 24.7992
1 6.5684 25.5164 4.78774
1 17.3077 25.1487 44.6267
1 5.60529 8.49105 24.9194
1 18.6123 4.90587 20.9375
1 10.9954 20.348 30.4903
1 24.5876 11.8567 25.9652
1 13.4614 30.3852 25.3745
1 25.3104 23.1701 24.1643
1 26.6574 45.7029 2.6871
1 18.1328 0.824365 1.78094
1 15.669 15.3517 14.218
1 25.2613 13.3193 45.2021
1 40.4614 42.8137 33.5932
1 25.8531 21.7559 43.4102
1 34.3192 11.5888 43.1616
1 46.384 43.6175 18.1616
1 32.7602 34.5903 32.7451
1 10.3874 9.37193 26.1641
1 16.2481 39.1557 31.2685
1 23.46 34.1044 2.53725
1 46.716 46.1144 11.2493
1 48.3714 33.4445 43.5897
1 27.0806 9.29141 43.438
1 0.4522 23.3231 22.1937
1 12.9283 35.5558 25.13
1 23.6924 36.8638 10.4851
1 43.8906 42.5693 2.85857
1 35.4898 14.3764 12.8324
1 20.4215 15.3576 7.89217
1 43.3733 12.2957 5.31304
1 31.9388 15.8443 4.21027
1 15.2825 24.6361 45.8926
1 29.2871 5.07539 6.18939
1 1.85533 4.50257 6.15918
1 35.9975 37.108 4.20798
1 5.76321 20.2279 34.5743
1 9.75789 5.56239 3.42299
1 34.7674 35.0248 11.8318
1 20.4598 9.28683 10.1289
1 11.918 11.3796 45.5075
1 46.6896 30.6087 14.8834
1 36.2467 17.1373 4.52015
1 8.59285 28.5688 46.2693
1 23.7376 40.8449 3.47508
1 10.8484 13.998 10.389
1 39.8274 48.8452 46.2189
1 35.3624 17.9782 32.2545
1 37.4744 4.83732 20.5135
1 31.9456 43.1093 6.39787
1 5.25672 25.6811 21.442
1 17.5975 27.3246 23.9972
1 46.0733 31.5067 21.3495
1 41.2703 49.3815 29.1101
1 12.5468 10.9279 3.05318
1 5.47648 1.38848 15.3307
1 46.705 25.5442 38.363
1 49.4636 13.9967 4.13648
1 31.0236 41.4213 15.324
1 23.7056 2.89301 37.626
1 44.4189 26.9523 24.0559
1 12.1863 3.00509 47.5339
1 28.3404 18.6361 40.6664
1 30.7938 21.1011 37.5053
1 5.83286 38.6369 32.1608
1 22.1867 2.31134 26.7234
1 0.0863273 5.1253 2.54043
1 0.769349 3.42239 37.2787
1 14.0964 30.8323 12.9914
1 11.7291 40.9762 46.6745
1 39.4647 8.57523 43.4258
1 29.6979 22.4189 20.5854
1 7.06605 27.9385 16.0108
1 36.2049 11.8577 0.297944
1 24.5601 44.2043 30.2774
1 32.0287 31.3409 17.002
1 8.7236 49.0037 9.40623
1 25.771 0.77785 27.5499
1 5.78225 2.26618 40.3213
1 13.7887 36.8949 28.9457
1 28.409 18.2072 37.8794
1 14.1969 14.3545 4.02053
1 47.5512 14.2079 46.3638
1 24.3537 24.1957 43.3083
1 45.9062 1.57285 12.8143
1 31.0156 46.487 43.261
1 47.3515 41.1338 36.9955
1 0.561397 9.45977 32.3322
1 20.861 26.2627 28.3758
1 41.1561 41.3467 24.0873
1 22.2618 24.1217 24.6905
1 49.2671 16.4863 16.3324
1 7.07567 23.6575 41.7751
1 49.1292 38.0844 37.026
1 32.683 43.6246 3.58584
1 36.1318 42.3505 13.8584
1 6.56291 15.1686 19.0198
1 47.2772 36.9237 27.5998
1 19.4618 44.9618 37.5944
1 49.0792 39.3621 21.7511
1 29.5563 35.5507 10.2186
1 48.1337 42.8818 41.8542
1 11.165 25.9327 30.1963
1 6.26793 32.3942 15.3973
1 9.86321 49.3351 49.6082
1 4.5601 15.0949 2.27312
1 29.106 5.96316 20.707
1 17.6141 24.6165 23.8457
1 13.0103 23.9305 3.81605
1 30.4097 27.7949 19.208
1 17.8468 45.7224 19.6245
1 12.4322 11.1857 25.7908
1 14.0365 35.6971 47.9664
1 2.73742 2.29476 18.3428
1 27.7255 16.3135 45.1748
1 41.7291 20.0912 27.4597
1 31.6996 32.8584 44.5823
1 45.1402 14.4781 7.47791
1 5.17851 0.326479 47.5891
1 4.12015 31.6115 19.4048
1 36.1897 40.5571 49.65
1 15.7431 16.1061 0.269838
1 23.3388 20.1116 5.77333
1 3.78652 6.69196 16.3914
1 29.2694 37.0183 23.8726
1 -0.0210679 30.9887 24.4086
1 16.717 30.6046 16.2441
1 17.464 28.2366 27.2399
1 28.7888 8.06387 34.2942
1 12.3314 25.481 41.9071
1 17.968 31.9021 29.1818
1 42.1568 14.8748 42.1815
1 18.2948 2.71966 37.9709
1 43.9177 33.8118 15.5652
1 21.9799 47.2793 47.0461
1 26.5951 3.30838 21.6958
1 36.6937 8.37162 29.622
1 0.105017 34.0542 36.487
1 34.8917 48.2955 10.4507
1 17.7452 41.1625 42.9908
1 27.7375 44.7544 13.3905
1 3.3819 36.1707 34.1724
1 46.6506 44.9629 45.1776
1 37.23 3.99174 32.9032
1 48.5362 49.1826 44.9557
1 40.3046 11.7235 35.0878
1 39.4196 5.08249 31.2504
1 32.0361 21.8243 16.8978
1 41.5008 25.3093 17.8683
1 38.3175 37.6601 32.1781
1 1.97049 31.3896 45.9941
1 47.0029 3.9882 17.1704
1 48.7759 15.6055 30.6879
1 36.3082 6.83015 40.5084
1 16.5937 29.892 43.1911
1 31.2996 46.845 23.6214
1 49.3437 26.2868 1.72031
1 38.3922 22.515 34.8718
1 22.9638 31.2459 10.8717
1 29.2983 44.6885 28.4085
1 8.40554 46.6234 44.1277
1 3.77204 0.387381 28.6802
1 28.7259 14.5657 10.2449
1 9.45496 10.7865 43.1684
1 24.284 14.8439 37.8655
1 1.49942 24.163 43.117
1 48.4578 0.534884 21.9177
1 22.7116 17.3533 35.5962
1 10.7814 8.96546 40.6171
1 42.1044 25.3995 15.0665
1 22.3045 40.3635 43.7121
1 16.7372 16.5904 9.43352
1 19.9517 39.0465 25.3098
1 47.2273 27.9557 36.9583
1 29.9447 5.57277 13.3978
1 39.5568 17.9196 36.0522
1 31.956 8.10914 25.1916
1 10.077 4.26632 41.8937
1 21.5107 31.6973 8.44505
1 29.2787 13.9732 37.0446
1 26.2845 16.6619 37.2174
1 7.57031 49.6629 31.8068
1 23.1184 42.4613 17.5271
1 43.527 15.8555 11.5325
1 13.8034 38.175 49.3395
1 20.5108 45.9269 41.5193
1 38.6003 15.4688 0.695857
1 40.2876 26.0192 41.866
1 30.1656 35.9544 16.5382
1 46.2917 22.8033 0.692652
1 23.7197 28.6526 23.9446
1 22.6128 15.03 34.3829
1 16.6528 14.9237 47.7258
1 42.2203 11.7681 8.39395
1 25.502 2.94093 10.995
1 10.8244 47.2155 7.66408
1 10.9677 46.146 36.7108
1 4.73003 21.4571 41.3895
1 6.41532 35.0563 34.0247
1 34.4856 14.8062 27.2488
1 2.17784 31.7043 12.8596
1 9.56299 31.9998 34.5374
1 42.4485 10.4954 29.1186
1 13.07 42.2274 39.1417
1 33.7223 16.5324 36.1993
1 6.59957 31.8612 34.5908
1 10.8667 16.1673 36.3485
1 12.9118 38.1883 21.4823
1 0.99683 1.6521 10.7986
1 18.8848 34.4517 36.7732
1 17.4484 14.4746 38.935
1 25.7845 19.5177 12.6838
1 36.0091 41.0449 2.68405
1 11.4215 43.9673 26.3058
1 3.16827 6.86774 43.6343
1 23.7747 6.59805 21.8487
1 29.3086 48.9745 32.8149
1 5.46665 48.9115 43.8945
1 34.0347 48.4494 27.7098
1 6.78953 5.6902 25.3982
1 49.6155 35.8311 44.859
1 39.8615 7.77138 5.07799
1 14.737 26.3097 32.161
1 12.0313 42.0026 7.95797
1 3.12465 19.8771 8.90748
1 39.7581 14.805 36.4868
1 48.2933 34.3931 6.3756
1 8.71016 41.1079 17.321
1 12.4693 7.30945 0.265864
1 31.4623 13.558 2.91476
1 9.69667 22.4348 31.4404
1 48.4614 24.8232 24.1279
1 34.0556 6.32876 23.5329
1 5.47061 47.4695 11.5795
1 41.8191 39.5493 29.1698
1 41.4543 19.2895 38.0084
1 13.5816 40.2242 41.1801
1 5.28735 4.98851 38.3397
1 43.333 9.53849 7.55179
1 5.23581 0.854793 5.8827
1 10.0198 28.4012 43.8476
1 14.1167 22.2648 49.5071
1 31.4872 24.8622 35.2661
1 13.4054 4.97504 10.2909
1 7.45496 32.8842 0.922474
1 46.509 26.3607 13.5355
1 18.6156 46.4405 44.272
1 6.61728 5.48058 33.3712
1 8.92122 27.6141 1.26754
1 47.7326 6.84473 4.74884
1 44.9406 16.7982 17.5568
1 2.32289 43.6665 3.76481
1 16.0843 24.2958 21.2042
1 2.21959 41.5529 41.6671
1 24.372 27.9634 8.31607
1 35.3314 11.0178 40.6914
1 1.92672 43.6943 31.759
1 4.26135 14.2719 16.7549
1 2.10955 39.8125 0.229609
1 12.7278 45.687 6.59795
1 38.8189 9.4365 13.9315
1 49.4755 19.6026 45.8922
1 26.8303 5.92044 22.1783
1 19.3806 42.777 22.957
1 5.18614 3.8683 25.8712
1 38.2845 39.6189 39.7824
1 38.7085 14.87 11.2098
1 39.7467 35.9906 46.4158
1 14.8263 20.2647 24.3363
1 32.356 43.5095 31.0584
1 27.9183 46.3499 48.219
1 29.6229 37.9148 4.54658
1 18.4384 12.8839 2.46618
1 47.2636 4.08035 2.36629
1 0.173598 37.211 3.2835
1 17.5725 29.4653 4.75216
1 27.8441 25.1493 32.1204
1 12.9696 20.8606 10.0443
1 23.2783 23.791 7.72048
1 16.6403 23.8824 42.2266
1 29.2205 22.9984 6.40275
1 48.3146 30.6156 34.7502
1 28.7128 9.35868 27.5001
1 19.2754 44.7779 30.4604
1 12.4941 40.9006 43.557
1 39.8658 3.89125 28.6328
1 41.9902 28.1623 23.7311
1 33.9486 3.36905 13.9502
1 23.7406 11.0527 46.2983
1 24.0808 44.6082 23.336
1 5.83661 43.5996 39.7657
1 26.3597 39.8307 38.3486
1 14.6283 31.2503 0.565162
1 31.2902 39.3661 21.2072
1 45.7582 40.6325 6.1678
1 43.2563 2.22986 42.1919
1 27.4342 35.647 4.23176
1 12.995 14.5015 6.91876
1 22.7915 24.2058 30.9221
1 8.76927 5.53135 27.4257
1 6.86214 48.4042 46.1665
1 29.3548 5.46409 41.2444
1 24.7361 7.383 5.65765
1 21.7129 11.2014 29.1612
1 45.8867 14.0999 44.3175
1 9.33139 48.6658 12.0523
1 22.0142 23.0514 15.8655
1 16.466 27.5368 2.02814
1 8.59109 1.54122 3.4357
1 14.6961 28.3134 23.8591
1 43.1446 44.8753 22.3495
1 13.8107 19.0821 41.7431
1 40.5033 21.3479 20.4116
1 31.2626 37.0905 33.262
1 3.53724 33.5485 40.9535
1 18.296 24.1604 37.1154
1 17.3542 40.5836 39.1879
1 30.7473 41.2622 23.2525
1 28.1721 2.98144 25.8972
1 32.6585 31.3917 42.2487
1 48.2244 29.953 47.1874
1 30.5954 46.7765 38.4521
1 1.15172 26.3852 39.0569
1 43.866 5.47414 6.02095
1 4.65238 46.2797 9.50026
1 14.2215 42.4732 4.23824
1 47.064 46.2307 31.9128
1 47.7785 28.7975 41.0791
1 14.815 22.0393 38.0574
1 4.42423 9.14326 37.7012
1 31.2225 10.9361 40.2799
1 45.5895 14.7368 23.7616
1 4.92312 29.3731 31.412
1 39.537 2.30921 47.9036
1 40.1165 7.19091 38.7178
1 45.6756 45.649 13.7404
1 48.5848 24.7239 13.5415
1 4.50546 26.3325 27.4443
1 5.54818 3.74153 31.2808
1 29.4667 42.299 26.9934
1 20.7625 21.7868 21.0556
1 32.8243 3.86513 19.0952
1 15.828 14.3523 44.9783
1 12.7103 24.043 15.505
1 30.4477 40.5486 5.65788
1 32.6853 7.14116 10.8926
1 9.46425 47.0091 32.2204
1 44.3604 27.6033 11.8955
1 29.5941 22.0015 17.7051
1 35.7912 2.24269 17.3547
1 3.70867 24.1834 41.4303
1 31.5418 40.5335 31.0708
1 43.1164 41.5338 16.3517
1 26.2744 5.70314 17.3035
1 13.5039 23.8338 22.2139
1 21.204 21.3248 30.4713
1 46.1793 36.376 23.2627
1 36.0046 3.77064 47.3585
1 29.0632 41.4042 34.477
1 34.3118 19.0715 29.7667
1 4.54542 36.5243 1.74798
1 15.2743 38.8361 7.47317
1 20.3743 17.3332 23.9722
1 21.2678 39.2861 37.4679
1 26.0124 7.2863 48.1925
1 29.5782 4.08826 32.3528
1 19.789 27.7851 11.0942
1 9.42613 29.4455 15.2371
1 25.7795 34.4322 39.7093
1 15.6688 47.3513 41.6444
1 32.9683 7.80986 6.44278
1 35.468 26.2325 38.2147
1 7.09814 21.2188 32.388
1 6.91832 26.0779 30.5196
1 2.50452 34.9045 23.4751
1 11.6578 17.5527 6.05487
1 13.6783 21.4467 32.7794
1 42.826 11.8522 18.3655
1 24.2806 48.8948 35.9334
1 27.2006 42.5499 4.54848
1 38.7813 11.5075 16.5769
1 48.1624 38.8541 9.48981
1 26.3707 26.1568 39.7951
1 18.441 32.9799 42.087
1 2.36569 39.6221 24.9224
1 30.168 45.265 32.3753
1 17.8889 31.462 39.8919
1 4.78869 4.82737 4.28166
1 30.1314 43.5543 45.5121
1 40.5589 13.5706 43.8791
1 39.9421 25.6342 21.968
1 0.223602 19.6938 22.3958
1 40.5467 6.22825 23.0097
1 30.4652 26.8238 31.5492
1 48.6243 6.26318 47.5212
1 46.1351 2.46542 5.61728
1 43.6872 24.3662 5.88528
1 34.968 32.7691 40.2488
1 36.3011 7.36366 4.99285
1 13.1491 7.0659 32.1402
1 26.9839 23.0782 28.0045
1 8.76495 45.1869 8.46033
1 33.8372 43.2185 33.7089
1 31.0165 20.317 3.30339
1 41.4293 19.2282 23.8555
1 23.8025 46.5149 31.8424
1 43.7494 15.9879 29.1534
1 48.4192 0.0547901 41.4673
1 13.9996 0.649083 23.7011
1 26.7086 12.8747 11.3621
1 33.7832 8.7849 40.4588
1 38.2558 11.6868 33.1641
1 35.8185 28.2524 6.362
1 1.5454 13.1352 22.1687
1 37.75 31.2795 47.5782
1 48.5388 44.7323 14.7106
1 23.4309 46.8405 40.5936
1 23.2056 10.9896 5.26042
1 23.5505 35.0783 15.0242
1 2.71985 42.4163 49.1511
1 46.2447 23.4668 29.8523
1 18.8125 46.8631 3.11946
1 24.9882 41.2927 21.7268
1 43.5916 13.9562 15.134
1 37.9827 43.9431 -0.0944493
1 25.2274 32.2716 27.4697
1 32.3233 23.6514 19.9771
1 6.38785 21.4163 47.2228
1 39.1279 30.1995 3.96309
1 24.944 13.6927 4.45983
1 33.6712 17.1696 39.183
1 16.7853 30.9235 9.08429
1 45.7286 48.6689 41.1364
1 45.2088 2.09341 8.34939
1 19.3046 26.6723 42.4285
1 37.0242 27.3819 10.154
1 29.8518 7.71129 7.04591
1 35.9548 9.76213 22.4707
1 22.0239 18.916 38.3241
1 8.15384 43.3571 29.9737
1 48.6803 32.5577 29.199
1 29.5682 43.976 6.90976
1 2.87194 30.4502 48.6072
1 42.4896 41.4408 37.4906
1 24.8418 16.7956 40.2806
1 35.869 39.2793 44.5763
1 47.6409 28.3273 18.3957
1 24.9611 18.5974 36.1787
1 22.6108 10.8633 10.1223
1 47.7197 27.9186 20.9894
1 5.04565 34.211 29.7878
1 48.0104 31.541 26.5353
1 17.4294 12.0137 0.0508339
1 35.3073 15.8246 17.3731
1 12.3114 24.9083 26.629
1 35.4098 32.003 30.3564
1 49.1239 33.3831 33.57
1 12.501 1.48583 11.416
1 33.7823 40.5008 48.2368
1 14.8945 20.8992 18.519
1 8.0174 10.1139 13.3834
1 39.3344 10.3661 19.2751
1 15.2555 4.54364 18.7746
1 44.2545 15.9627 48.1385
1 16.0982 1.86974 35.461
1 11.6197 19.5726 3.86677
1 36.9763 8.0116 44.9094
1 32.2282 36.7981 36.323
1 7.64363 46.3738 41.5238
1 47.5109 29.9945 23.0892
1 23.3364 3.97951 10.461
1 7.36811 40.6348 10.3747
1 32.1264 0.0145364 15.9056
1 19.8738 34.1329 46.2598
1 47.1478 0.319009 33.2119
1 12.5561 39.8364 6.37029
1 40.2795 24.5372 45.1274
1 0.827118 39.8497 2.61131
1 28.2687 9.55353 17.4797
1 41.7675 18.1054 4.41211
1 15.6357 37.1886 3.07913
1 10.5564 41.0559 2.93586
1 37.5366 6.54605 34.7013
1 33.0704 11.0235 12.3822
1 3.25544 28.8982 27.5258
1 10.2147 15.1565 23.5774
1 46.9364 45.3782 7.37437
1 13.7935 19.4726 21.8201
1 4.62727 45.7886 49.3751
1 36.0028 32.699 43.2494
1 47.0305 12.5039 15.5829
1 22.1085 24.1556 44.918
1 15.1038 37.0329 24.665
1 11.0774 27.3282 34.6174
1 22.4517 34.4302 35.4081
1 1.15405 41.9983 45.3362
1 35.7701 46.3373 13.4261
1 20.3337 47.0617 31.8114
1 20.7218 18.592 41.215
1 5.28199 47.1894 1.94244
1 45.3692 10.0189 2.32035
1 49.5143 2.83612 22.6935
1 34.2037 45.5013 9.62391
1 3.39724 45.5083 5.30646
1 20.2932 12.0717 40.485
1 33.2936 10.3027 46.9613
1 15.4768 46.46 24.0065
1 12.0459 49.4044 19.8472
1 37.9483 6.21226 16.2673
1 7.16735 11.0258 41.3146
1 25.6863 23.824 20.2482
1 41.6778 1.69673 22.5929
1 17.9197 14.6581 12.5132
1 8.84447 10.1025 6.04237
1 44.6784 31.8453 46.0398
1 22.3875 27.7033 37.8799
1 42.9947 35.6554 39.8836
1 41.4771 14.4869 26.9268
1 26.9968 13.494 16.8694
1 2.24006 0.693712 39.2744
1 17.5787 46.7347 37.522
1 20.2007 9.28735 18.9333
1 8.84396 20.6226 38.4763
1 26.2154 33.5746 34.5635
1 31.6457 5.20622 42.676
1 25.0945 2.67898 25.7238
1 29.1253 20.0489 43.5704
1 32.8931 0.71764 21.6567
1 1.08374 26.7212 48.2247
1 35.1972 31.0697 0.681842
1 34.2733 40.4817 23.3481
1 27.94 42.2472 46.2816
1 17.9663 17.2369 4.56673
1 15.2421 46.3414 19.0092
1 15.5146 6.49362 46.3503
1 4.01945 15.8835 22.4639
1 37.5922 44.5111 12.8264
1 11.3197 20.2578 37.2294
1 12.3901 36.6421 10.3238
1 31.0977 16.7553 25.3571
1 3.66842 18.393 24.8741
1 48.2284 26.1188 47.382
1 43.4496 13.5205 33.7858
1 33.2222 24.2577 14.9578
1 40.1327 40.52 8.34851
1 9.89962 31.4134 4.83356
1 5.05015 33.7412 43.3784
1 45.3184 13.6902 12.3029
1 10.7741 7.4056 28.0416
1 20.7834 19.8171 12.4331
1 24.9688 38.9871 9.55447
1 42.4087 47.1355 43.0745
1 48.6917 16.47 41.9295
1 7.06092 16.4374 24.8113
1 35.7735 22.8227 22.8255
1 19.2345 13.5852 21.8213
1 29.5465 28.0477 11.2632
1 31.1608 45.7828 2.78791
1 36.5122 33.5211 33.1193
1 3.54639 21.3856 6.65323
1 7.4974 28.2401 36.4454
1 1.37806 42.2162 29.3852
1 2.22337 37.6788 29.6511
1 40.7715 21.7498 44.8947
1 47.003 21.8862 12.1298
1 28.045 18.7975 6.62532
1 39.1596 12.6273 46.5748
1 16.1425 17.5929 15.9881
1 16.009 2.03226 45.4907
1 47.5862 35.7735 31.8772
1 42.4125 37.7915 35.4258
1 18.5762 11.7646 45.5134
1 17.578 48.9662 31.7856
1 5.81743 14.8839 6.909
1 43.2208 45.0369 30.3137
1 3.74671 29.6955 44.5436
1 45.5262 27.9758 44.2523
1 14.3436 48.379 21.3274
1 12.2981 4.93211 43.8025
1 34.5731 22.8578 43.3491
1 3.37283 37.0177 25.0985
1 31.7379 30.5744 5.81692
1 4.46672 40.5082 15.3099
1 14.6841 12.994 32.3527
1 11.8754 45.8533 39.1494
1 21.9757 9.87428 3.1124
1 49.038 48.9565 28.3674
1 19.6665 6.94431 48.0005
1 37.6872 20.6194 45.5388
1 27.8542 36.549 47.7851
1 46.7245 35.146 39.247
1 7.50775 19.2561 48.0048
1 26.6793 9.74212 33.3893
1 0.310475 45.6964 23.5208
1 11.094 29.1992 26.4375
1 47.3023 22.294 2.92487
1 22.6873 43.9652 13.0824
1 6.00657 9.02911 2.76808
1 20.1869 1.40789 47.2887
1 36.478 48.6787 30.716
1 15.0483 10.4384 4.73071
1 24.966 30.2974 4.43345
1 3.08416 33.8256 4.99001
1 14.0241 43.5695 36.6051
1 16.8012 18.5538 12.0747
1 11.3447 45.5838 29.6692
1 42 22.1188 9.32545
1 20.5488 47.8119 49.2493
1 28.0358 22.3956 42.0058
1 11.0415 18.168 49.5088
1 40.5016 45.1277 43.8003
1 0.699618 48.1619 31.9135
1 2.88651 47.8599 12.9784
1 19.2325 11.224 23.2752
1 24.795 47.5709 12.2045
1 32.7458 10.3821 26.8338
1 39.7504 46.1487 6.04817
1 19.7827 6.84411 45.2453
1 17.1289 37.0243 10.4524
1 11.3257 25.2938 48.8143
1 27.5243 30.7948 44.3574
1 40.1288 33.2224 0.348608
1 34.1922 33.4647 9.5301
1 49.3602 22.29 31.7078
1 10.1529 21.8694 40.3922
1 20.2703 4.46756 49.4914
1 9.99282 14.3157 46.8238
1 11.0131 6.84104 17.9592
1 25.0126 8.09139 9.16309
1 38.7193 39.1127 37.0644
1 13.596 34.5641 35.3202
1 45.3258 19.4561 47.0201
1 30.1247 29.4881 32.9623
1 18.2755 49.4019 48.5504
1 37.2877 9.33272 40.7713
1 28.4148 43.0759 32.2583
1 39.6067 13.1431 2.30749
1 36.3032 28.0314 20.5742
1 0.861769 28.5365 26.1686
1 45.105 9.64645 5.20298
1 23.0278 47.6269 1.90738
1 13.4482 5.30791 48.0828
1 29.7856 47.3628 18.8456
1 37.9924 18.0378 33.461
1 23.8932 45.9029 5.89171
1 27.2096 12.0531 43.6968
1 3.66181 14.9744 30.5588
1 14.0103 36.7836 17.9503
1 19.8764 49.4487 29.9491
1 45.7047 17.6998 10.6645
1 27.4646 2.79222 31.4165
1 20.2136 9.5023 44.2864
1 17.7433 33.6554 32.6084
1 35.2555 26.163 32.0997
1 12.6403 29.8066 21.8434
1 13.6167 31.8245 39.7728
1 16.1257 18.4667 48.701
1 17.7388 48.4152 42.6465
1 37.0922 9.37273 3.59812
1 0.643058 38.839 32.5748
1 37.834 45.3282 19.8839
1 15.464 0.639696 49.2999
1 6.66923 28.6289 27.3361
1 18.5708 13.2456 19.253
1 6.38767 42.7896 33.9841
1 1.68335 39.7994 12.3871
1 30.6896 29.6299 35.5512
1 32.9614 28.2994 22.506
1 23.5288 4.06827 43.3836
1 46.1921 20.0748 3.75724
1 32.7969 44.3928 20.0576
1 18.8764 43.483 26.9252
1 28.9024 40.8372 39.0595
1 21.3421 13.2072 10.7084
1 8.98427 8.49274 44.2888
1 1.78968 0.921176 13.2254
1 19.8787 41.5992 5.27175
1 45.1122 25.2606 15.9782
1 14.7211 3.51243 21.2632
1 3.22393 45.6164 14.8962
1 6.75068 12.6576 20.7027
1 41.2823 0.230531 20.0073
1 7.38545 31.5836 8.99029
1 9.58239 26.7081 17.4421
1 18.4055 43.3956 3.87159
1 6.32205 20.1237 42.9249
1 39.288 33.4654 32.8178
1 19.9087 19.7694 36.1019
1 27.6372 3.99096 49.5312
1 38.5753 32.1525 42.5337
1 5.49825 11.4935 38.4323
1 38.6813 47.2882 29.0004
1 28.9794 0.601825 39.0017
1 15.3396 19.9014 28.6507
1 42.1926 35.5291 21.0538
1 27.7024 3.86895 42.5854
1 12.0604 13.2655 20.8446
1 40.6976 45.3106 31.1468
1 2.08928 3.47081 46.912
1 24.2911 9.61445 30.0208
1 2.32965 32.0191 3.5563
1 47.2221 23.5902 46.7891
1 11.2775 28.6019 29.1697
1 17.3611 10.7799 12.9183
1 41.8139 30.5294 24.9556
1 20.9218 35.9221 49.7996
1 22.1784 37.6385 43.3723
1 28.5039 28.8223 36.9669
1 42.6194 10.5599 16.1092
1 20.8944 14.326 3.33445
1 38.4803 30.6132 0.204155
1 30.6183 48.7773 46.4931
1 12.4172 43.7192 49.5808
1 3.39345 27.6357 20.7717
1 6.07871 13.8802 34.9264
1 40.3871 37.2623 37.2746
1 9.39163 3.11034 19.1175
1 17.5446 39.593 49.6152
1 13.1164 27.2087 12.4075
1 45.1344 27.1754 18.1847
1 6.60479 45.4257 34.7253
1 44.4635 37.4413 21.1707
1 23.7086 11.1558 21.6164
1 41.4339 25.934 33.94
1 19.2155 25.3142 18.6356
1 4.9692 49.6131 0.714826
1 12.2172 49.7647 15.5611
1 20.3849 10.1264 26.6057
1 10.3839 31.8709 27.0044
1 49.3268 0.180284 36.8029
1 15.0311 25.2947 29.5595
1 14.3474 1.07876 8.13859
1 11.4657 45.6951 48.0056
1 26.6851 47.1685 45.6095
1 30.8546 2.48784 47.5622
1 28.3288 39.2872 46.3948
1 3.67017 5.98658 40.4613
1 42.0711 43.2828 20.3765
1 13.6312 45.1467 21.6559
1 14.3393 32.3502 5.2475
1 10.4141 13.0475 48.9957
1 26.0718 45.5621 20.7867
1 17.4207 19.4016 46.2724
1 48.3757 19.1134 40.229
1 15.374 20.8312 5.57611
1 11.0605 48.8506 5.32982
1 37.4777 0.877606 33.9723
1 38.1468 20.1668 21.5752
1 23.9276 42.1196 39.4797
1 5.66538 30.5184 4.38039
1 5.48529 44.6011 15.8571
1 38.2164 43.8792 39.7071
1 39.4186 38.589 47.1991
1 44.0496 31.7672 38.0777
1 25.2715 32.1195 43.4648
1 47.9576 37.603 44.862
1 23.5787 24.0891 18.2613
1 35.3573 3.05215 43.441
1 38.7993 31.8433 30.4878
1 16.3961 41.1569 27.9435
1 10.3445 5.83067 0.311595
1 48.8049 23.2081 6.8988
1 20.9046 49.6962 36.9718
1 40.9134 49.2882 12.8548
1 20.1597 44.2079 1.80927
1 8.11431 18.7289 21.95
1 29.407 30.7217 19.8578
1 3.11831 39.793 9.95907
1 33.5405 45.2528 17.3718
1 48.5834 31.1984 10.2067
1 7.73598 47.0173 2.5975
1 47.5151 9.50533 10.8235
1 2.97053 11.2393 36.1898
1 39.9105 7.82503 15.6937
1 4.2008 48.7639 15.8185
1 10.7577 43.1135 14.6514
1 22.1886 49.0618 20.7582
1 43.0486 46.1098 8.52468
1 42.4361 7.95967 11.8764
1 15.0286 34.7395 16.6786
1 17.9419 13.6389 43.6625
1 43.0709 20.0463 14.9783
1 30.137 8.14732 22.2002
1 38.5655 27.4733 7.35817
1 37.1113 2.50093 41.307
1 34.6476 38.2585 31.6537
1 15.9867 46.6708 0.216125
1 29.9123 27.9411 25.1762
1 17.1706 42.8513 24.7859
1 46.2067 29.4805 1.09077
1 26.7081 31.3107 31.1069
1 12.0637 17.0947 23.9829
1 13.4472 15.114 44.5314
1 31.4779 44.1908 37.0894
1 27.6539 29.0927 32.429
1 34.3807 16.2798 23.1411
1 43.3659 17.564 13.9155
1 1.32492 20.6444 35.2442
1 41.17 6.83767 2.69949
1 4.56701 29.1414 18.1852
1 8.91386 9.71329 2.10574
1 37.3873 40.494 7.90818
1 22.0246 49.7526 40.6254
1 17.5326 17.102 18.1381
1 37.8873 26.1614 43.0042
1 18.6071 24.8614 14.6593
1 4.94557 10.1621 45.9859
1 14.9957 37.9983 33.3006
1 0.326454 38.6095 17.434
1 25.4364 47.2837 18.6875
1 25.4568 15.0332 1.9266
1 2.84631 39.8876 33.875
1 36.0392 31.6514 17.5611
1 18.7648 18.5982 28.1445
1 43.4509 26.2222 2.12627
1 17.6971 10.7106 19.2606
1 49.3985 38.807 7.0998
1 24.7192 22.1549 32.0795
1 39.513 17.4564 40.8101
1 8.01966 29.4094 5.26599
1 7.41085 1.13322 0.955859
1 6.86489 41.1515 48.0575
1 38.4427 32.0493 21.8585
1 22.6836 41.8901 37.076
1 0.116604 30.0616 39.5069
1 48.0785 38.2334 24.2393
1 2.89045 1.36021 1.97791
1 3.82529 34.53 49.713
1 33.055 20.7441 46.2131
1 16.8526 33.1424 20.8383
1 41.5209 1.59948 14.7846
1 23.6382 40.1362 23.8298
1 39.5303 49.3437 25.5916
1 44.533 35.3236 1.1706
1 7.74783 18.1029 18.5185
1 36.8092 4.85735 7.2141
1 42.4437 30.5061 30.6594
1 25.3305 46.8225 0.201722
1 25.9765 3.38949 39.1977
1 40.1544 23.5352 23.9036
1 14.9779 14.8067 28.4755
1 49.0825 12.4504 35.6677
1 12.2262 30.1398 43.6708
1 34.4465 30.6711 15.286
1 21.7734 37.0536 38.728
1 12.6733 6.70935 41.085
1 31.82 22.434 10.7377
1 29.9935 4.91952 24.7904
1 9.05587 23.6506 36.511
1 45.4437 2.28795 43.808
1 8.63563 44.33 32.4662
1 35.1409 36.1917 6.61647
1 32.8485 41.5775 37.5422
1 9.7249 42.7999 7.09713
1 45.1575 13.8317 20.4843
1 0.675182 7.91732 28.6344
1 42.9512 22.8418 13.0868
1 33.8424 31.7408 13.2341
1 36.0371 24.4307 26.7228
1 0.134563 44.9317 3.50492
1 40.6198 15.6294 45.9357
1 2.38182 23.2551 46.4961
1 13.3769 3.26339 16.316
1 10.295 44.7236 23.6214
1 15.0434 28.2732 18.1932
1 32.8469 12.7898 38.8243
1 6.23897 14.3008 49.5434
1 32.5742 30.1492 3.12672
1 29.4149 9.3538 4.27042
1 38.5827 32.9348 26.1214
1 5.40594 8.09511 35.0598
1 22.953 21.1366 13.445
1 44.214 25.8356 26.5688
1 12.8566 11.5548 34.1921
1 27.385 30.7027 28.4763
1 5.6865 17.2126 3.70489
1 41.4238 19.3542 41.1438
1 35.9253 21.5067 4.777
1 15.7869 11.5952 30.7583
1 22.9605 13.1939 27.646
1 8.43701 34.7429 12.5694