4096
 Atoms. Timestep: 160
1 3.01709 22.6675 27.9908
1 4.76218 45.0564 33.7752
1 44.5698 11.8431 17.5508
1 9.23136 40.4294 28.8679
1 8.0659 20.62 1.37268
1 47.8875 15.6292 12.8081
1 26.8056 44.9334 34.0034
1 29.2266 44.6562 24.9823
1 46.6522 48.6068 40.4632
1 37.0878 27.6834 1.84677
1 42.5973 45.7257 18.682
1 6.03925 12.2806 34.5585
1 3.14654 11.2497 12.1183
1 27.8716 3.77978 11.8559
1 10.5071 34.0879 4.13553
1 37.7232 39.4642 26.48
1 45.0777 39.2729 22.1463
1 2.15532 37.6588 12.7158
1 21.3825 10.5674 37.3689
1 23.1017 3.58132 7.87966
1 40.2365 2.94346 32.972
1 7.83103 38.0641 7.46757
1 19.6023 37.4577 0.513493
1 16.4335 41.366 32.8752
1 15.4107 46.198 23.777
1 27.0401 17.9101 31.6406
1 13.5597 41.1475 27.0087
1 24.0136 46.8154 3.76007
1 24.1705 0.969166 4.29743
1 9.04115 0.649127 13.4226
1 0.820116 12.5683 13.5568
1 33.7647 29.6692 8.55657
1 33.0413 19.0033 6.87528
1 28.4014 36.0111 16.963
1 45.1125 48.8725 46.8494
1 20.2565 4.34984 39.431
1 11.2307 5.08793 14.5172
1 1.82656 9.53919 1.40796
1 6.84536 13.8486 22.4744
1 2.31879 32.6086 27.6495
1 30.4205 28.5069 40.9337
1 16.7168 15.409 2.92636
1 12.1692 49.0127 23.9995
1 37.7878 37.1515 10.3535
1 40.2529 49.0937 18.3726
1 0.857883 39.7642 5.95168
1 23.1402 6.06229 12.3585
1 35.5386 22.4617 5.18875
1 29.2264 28.5375 0.889209
1 35.3374 0.843788 47.2963
1 48.2804 45.5751 36.9016
1 4.86675 25.3232 20.6614
1 16.3854 12.4175 46.5757
1 2.91094 15.7085 21.5011
1 9.4827 2.23687 31.2664
1 11.1189 10.2696 14.1348
1 9.92221 5.18195 25.0756
1 7.58583 2.43861 20.1919
1 29.4236 8.25295 41.8214
1 46.7261 27.7666 28.1077
1 21.0031 42.3578 37.3463
1 10.0791 1.7184 33.8762
1 48.4268 32.9256 35.4299
1 37.027 17.9125 9.32867
1 27.4526 9.4053 6.43234
1 23.2619 27.561 43.9204
1 40.9958 25.2031 45.26
1 1.35119 17.4351 2.53388
1 35.9268 23.328 13.9747
1 30.7287 22.0488 39.2052
1 26.2418 30.1339 46.6995
1 24.5515 34.7311 2.97561
1 36.6343 5.11982 22.2843
1 41.5725 7.05492 49.2664
1 22.812 12.7103 36.9297
1 36.5175 28.6927 48.6567
1 25.5066 37.5931 11.2154
1 24.8051 46.0424 37.8806
1 16.2218 33.2843 2.0227
1 19.852 11.3834 15.262
1 26.6006 41.1315 4.99684
1 14.172 11.2427 45.2599
1 24.7447 18.9271 38.9483
1 32.5096 24.6093 8.47187
1 33.8032 34.6916 43.7302
1 34.1424 27.9318 18.396
1 43.4691 9.10201 48.7412
1 11.5348 15.8062 5.6903
1 29.1302 20.4523 11.5561
1 24.0609 18.1802 1.09869
1 43.4804 21.1993 16.948
1 25.8988 43.832 7.10222
1 24.8492 3.56803 17.1393
1 27.5466 33.3695 31.9389
1 8.89294 32.5953 8.21871
1 26.9725 35.7926 32.7466
1 42.5195 5.84806 13.2187
1 27.6147 16.4205 7.98014
1 10.0518 2.50237 15.454
1 9.36325 12.4687 26.4064
1 19.5582 7.94052 23.7471
1 19.8625 28.8351 37.6515
1 8.40983 27.7619 2.49791
1 16.4421 41.0085 42.1604
1 14.2361 40.3411 13.3534
1 38.1651 45.3844 2.71048
1 35.76 19.7332 13.3725
1 15.6098 49.4204 13.8273
1 29.3408 34.69 9.56019
1 0.228534 38.4256 39.6575
1 21.0771 47.0893 3.31985
1 15.3286 37.8831 24.2603
1 5.00363 37.0904 44.6935
1 18.0917 1.46356 19.4676
1 21.2869 9.36005 34.8357
1 22.1654 11.1327 29.9077
1 11.3513 18.1736 33.4097
1 44.7867 35.9219 36.7318
1 11.0352 29.554 49.4762
1 18.2493 47.8257 18.1838
1 16.7849 5.27152 3.84842
1 12.2391 24.6379 26.6813
1 40.0652 15.9658 47.5726
1 24.9936 44.7506 22.034
1 4.32765 44.8569 31.1802
1 12.187 7.80427 44.6492
1 27.2308 34.6003 38.0309
1 17.9405 29.9279 24.0243
1 31.1715 49.4753 23.156
1 27.9617 30.4556 16.9215
1 36.069 36.5037 0.619911
1 19.8005 22.6758 28.9964
1 48.3531 15.3597 29.8097
1 0.773263 34.0428 6.38597
1 2.37004 0.824072 17.9273
1 47.7875 18.6427 39.1075
1 42.7962 10.013 27.1058
1 28.2885 37.9749 40.8403
1 18.4231 45.8389 7.81993
1 31.4504 28.357 46.8563
1 38.903 4.24981 6.93813
1 9.23063 10.3199 20.1432
1 27.5543 10.8762 37.5473
1 8.07734 14.028 34.6898
1 14.8547 25.5957 17.7579
1 37.6796 19.9629 17.1248
1 25.1754 47.4477 20.6062
1 22.2531 6.56977 19.6722
1 6.99235 35.6364 45.8299
1 49.147 21.9763 36.0494
1 16.4054 9.25847 1.3755
1 4.4852 6.7133 7.05298
1 41.2274 41.3182 6.41731
1 39.3094 10.2895 9.59432
1 37.2054 4.68419 49.1765
1 36.2084 17.7483 37.8692
1 23.8571 5.84568 34.4833
1 42.7189 12.9923 4.27195
1 34.4545 18.238 21.8012
1 40.1572 5.33601 14.187
1 21.1769 31.8021 30.7277
1 36.2549 18.0488 5.02634
1 46.8559 8.6589 22.1811
1 21.047 3.97519 18.649
1 46.4346 30.2708 37.6221
1 12.7465 18.5083 39.7424
1 30.9512 7.08937 19.1037
1 22.143 5.32028 6.09359
1 30.0283 7.59259 10.3777
1 28.3151 3.57776 22.0849
1 6.85791 7.9076 20.9993
1 43.5266 41.104 24.4406
1 12.5128 28.5108 15.2065
1 21.6464 13.4933 5.49713
1 20.3404 2.73588 15.0251
1 25.2814 20.0741 7.59585
1 46.9111 5.62799 17.1496
1 49.7495 40.6222 8.4504
1 33.7243 45.6508 17.9647
1 15.1171 39.1513 44.3815
1 18.9727 11.6206 11.5782
1 18.0743 42.3594 28.1594
1 17.9243 17.8169 9.21768
1 23.8143 23.4828 49.3365
1 40.6336 46.6454 2.11705
1 17.6666 13.8532 21.1619
1 34.5694 39.6737 29.2234
1 33.4644 35.9336 33.7989
1 36.1113 2.19733 4.56681
1 14.0541 31.1757 24.6585
1 14.2333 16.2375 6.88681
1 24.4133 20.0352 10.9089
1 29.0857 6.51945 1.55393
1 35.0342 37.6307 23.1685
1 7.22753 30.8856 27.2482
1 26.3888 35.8215 4.49784
1 49.7935 5.01432 7.54295
1 20.2177 37.7359 23.0376
1 31.6536 24.3044 23.9587
1 11.4677 38.0848 13.3136
1 1.33351 12.0375 36.2415
1 3.53987 38.6798 48.528
1 25.5655 32.4929 16.8501
1 5.7527 14.1333 47.163
1 14.0581 11.2187 21.1071
1 31.1872 13.567 10.7983
1 32.4253 34.2465 46.1839
1 21.1502 19.6173 24.8882
1 48.9695 3.29743 27.0347
1 1.51192 2.2641 9.40376
1 15.4318 10.6947 29.3559
1 28.743 18.9607 41.7369
1 39.8703 19.8859 15.121
1 11.5994 15.6352 30.4478
1 17.8143 33.3742 7.33936
1 26.0795 4.02859 28.4483
1 26.919 5.77601 23.3843
1 22.1121 28.1798 2.03044
1 10.5411 18.2753 16.9861
1 17.0758 20.0489 25.6308
1 26.2315 23.751 15.7555
1 2.98027 8.37614 34.469
1 43.4621 46.2976 25.9654
1 28.633 3.4745 48.8943
1 13.8747 22.5804 27.7397
1 33.2506 39.8815 14.5621
1 32.8571 3.59645 15.9484
1 17.559 0.846621 15.1478
1 39.6373 37.0938 26.5661
1 13.7946 12.3103 14.3362
1 22.1279 26.9621 12.6222
1 22.5457 36.9575 14.9642
1 10.1182 46.8634 38.2194
1 24.3646 0.661491 34.3495
1 16.653 17.1157 32.4795
1 49.3008 8.83749 15.1683
1 24.3713 4.18428 25.301
1 5.94043 33.6912 14.8255
1 0.90843 49.1076 9.84075
1 49.0053 29.2454 0.876514
1 6.5977 31.5431 3.41938
1 39.3781 27.5509 34.4399
1 48.9575 22.005 8.8503
1 41.4219 43.632 40.9675
1 11.9984 38.1926 28.7487
1 48.9852 31.0276 9.47191
1 1.48703 3.09231 31.9273
1 48.3303 17.7346 45.9051
1 19.9997 21.785 32.2838
1 48.2505 21.9496 25.0729
1 40.2181 28.0406 31.9136
1 7.45725 25.5812 5.58279
1 0.0128722 0.730858 40.1673
1 33.8707 15.8512 27.7632
1 24.5295 16.7282 37.1106
1 2.12972 24.1075 33.2318
1 34.6409 42.791 20.7863
1 24.2546 31.6088 44.8773
1 11.1559 23.2694 11.8082
1 4.44041 44.8003 10.594
1 44.9081 3.35582 17.8702
1 24.411 11.9857 34.4253
1 11.2547 29.0516 19.0905
1 2.42054 43.2665 43.4778
1 8.92885 25.586 48.7117
1 7.40081 13.5308 9.21991
1 24.6998 32.6386 34.5398
1 38.5666 44.2102 8.59223
1 22.0973 37.3747 41.9219
1 5.57193 31.2623 22.6897
1 24.5768 1.6481 47.324
1 34.4139 25.9916 29.9231
1 45.7045 13.2368 27.4211
1 4.24897 40.9061 47.3106
1 22.0931 11.5139 12.1893
1 47.3052 48.4298 3.18349
1 40.852 42.7423 35.9484
1 16.053 31.5426 22.7421
1 30.0121 22.2543 24.0786
1 7.43907 17.1806 12.3391
1 3.67355 26.3893 14.1321
1 26.1368 46.4822 46.8233
1 38.089 32.3573 26.832
1 7.92436 37.4221 47.5797
1 13.266 6.48208 15.6992
1 49.3174 24.5079 2.09778
1 12.2204 25.2682 6.93931
1 49.2534 45.9203 32.0361
1 14.26 12.9952 3.37383
1 4.32645 12.2449 45.3696
1 27.06 22.3062 31.1917
1 43.4707 26.2329 40.9422
1 17.869 38.3014 32.0778
1 21.799 39.5473 24.7002
1 17.8544 15.0787 9.54766
1 48.6615 0.655739 12.6689
1 7.18698 16.7468 35.8951
1 44.2369 0.0784405 22.8312
1 41.9597 11.3715 48.208
1 31.1501 16.6102 27.875
1 2.63365 40.1862 17.3205
1 22.3036 27.6147 27.1938
1 4.83401 12.9704 26.6289
1 19.5812 29.4202 30.4073
1 17.6089 34.8135 10.0265
1 46.1658 11.3594 15.1451
1 47.2629 31.5139 21.889
1 29.7381 16.36 41.9494
1 47.9101 23.2172 11.4875
1 17.8599 41.4378 20.2597
1 40.9885 46.8078 16.6327
1 48.9652 13.7406 43.6511
1 36.9176 30.6602 12.4915
1 26.0773 18.9365 21.2183
1 23.0155 15.1289 6.99026
1 43.3256 17.488 45.5937
1 16.7455 18.1815 21.1419
1 21.3411 39.5096 0.967123
1 11.741 10.3814 3.08833
1 38.9125 22.1444 4.2632
1 6.23676 15.2853 39.3976
1 2.00945 7.59024 30.936
1 38.9225 34.7605 9.62076
1 35.3376 10.552 5.25587
1 10.8777 47.1257 3.16679
1 44.6949 32.7783 22.1141
1 24.1233 24.2503 42.4189
1 9.99712 14.503 9.93755
1 28.853 41.5262 7.05789
1 30.878 7.69404 16.3453
1 21.1672 47.9604 27.8494
1 21.6618 14.2818 34.7618
1 38.2349 16.7634 41.5071
1 40.5755 44.4568 45.5729
1 40.8712 29.7849 25.797
1 48.4645 16.015 25.5988
1 39.9496 26.7456 18.4595
1 43.4547 3.27416 9.04247
1 12.6182 41.9559 9.54973
1 46.6166 11.1468 8.23521
1 47.4249 36.411 43.0253
1 36.1325 21.1914 2.5257
1 30.0448 30.7345 26.2016
1 21.2346 5.98589 46.5523
1 38.7238 41.1703 24.1151
1 9.21781 0.542716 1.55374
1 27.3602 14.1363 25.5249
1 27.2269 19.2077 34.9018
1 19.962 36.0867 14.3932
1 14.534 3.09248 17.8689
1 15.2406 48.4026 6.50316
1 2.84595 40.7182 43.1389
1 20.2744 27.1678 5.27739
1 10.5991 43.9887 44.7997
1 38.348 48.0905 5.72147
1 20.3238 9.95015 28.0337
1 13.4042 11.3804 5.61523
1 32.6885 14.3217 45.2106
1 15.5133 2.20614 39.1202
1 42.2678 36.6452 7.07365
1 39.3335 44.9234 15.2555
1 15.2551 3.99421 25.3361
1 7.10876 46.4177 38.433
1 16.3105 25.8093 36.1048
1 25.1617 26.3058 25.8124
1 20.0294 30.2187 43.7552
1 39.1391 21.0771 39.1116
1 11.7705 16.2674 41.8184
1 0.785033 45.008 2.01749
1 15.9021 7.36487 34.7813
1 49.0933 47.5401 1.10827
1 5.5626 17.0591 28.9322
1 11.443 21.0912 33.5985
1 32.1289 10.4599 28.0065
1 2.85293 15.0532 26.7687
1 41.8425 37.146 16.713
1 42.4218 10.9656 42.9741
1 17.9797 23.8494 26.6416
1 41.6517 1.43388 9.98379
1 35.5715 4.09018 28.0947
1 15.7216 4.90827 16.2368
1 35.8905 15.5471 42.5296
1 20.0154 43.5626 34.6165
1 1.11057 1.68141 2.23068
1 33.8754 48.7576 6.89553
1 38.2323 9.21067 42.0796
1 0.441706 22.8772 39.111
1 8.73645 24.7105 15.5709
1 21.725 34.969 7.32746
1 6.87629 22.6053 46.6927
1 32.7528 3.22478 28.5507
1 15.3538 27.5195 27.229
1 24.783 15.4915 45.0684
1 20.9737 38.8899 39.9045
1 14.058 5.21915 11.9062
1 30.1829 12.0642 32.2936
1 15.9824 36.5977 5.10536
1 45.0738 22.8957 33.9898
1 33.7939 24.63 43.011
1 45.7195 1.03997 24.9258
1 28.1366 32.9889 46.6521
1 8.28764 13.0242 44.7051
1 14.8722 1.96453 5.1238
1 42.7926 40.3063 28.545
1 25.7277 0.0538784 43.3054
1 16.9395 9.66055 35.3086
1 21.8176 37.8913 35.8766
1 2.02494 10.1405 27.2526
1 17.1299 24.9956 23.9988
1 48.8377 22.7522 20.5234
1 15.2736 38.0455 9.77552
1 28.7714 2.79702 29.2017
1 29.7567 20.9187 16.399
1 5.01064 22.8922 29.8909
1 20.9282 45.1029 20.7267
1 39.3412 27.1956 45.839
1 17.9547 11.0666 29.6749
1 47.201 48.3268 7.40849
1 28.2047 44.9106 6.30695
1 14.6312 25.9479 31.6556
1 4.88182 18.7518 0.314514
1 46.7297 23.7522 31.852
1 43.1019 36.7943 47.4107
1 15.1516 32.41 40.7453
1 21.8252 39.4617 14.3087
1 7.34368 26.6876 33.8026
1 7.32512 37.021 41.5312
1 39.9584 14.9185 36.828
1 19.9688 4.77422 9.8099
1 40.9521 14.3918 21.5666
1 41.7189 11.3885 35.0731
1 39.2446 22.7668 18.095
1 39.3445 31.3013 14.0858
1 38.7697 34.6558 36.583
1 6.44384 32.5201 35.0927
1 43.8871 4.079 15.046
1 15.2129 44.5375 30.1141
1 9.4905 17.0871 31.5852
1 17.4867 10.4212 38.1709
1 37.0467 46.9626 33.7337
1 9.24982 25.6492 41.0651
1 32.2 28.1887 37.6477
1 7.55928 11.2158 6.07943
1 22.8048 45.9473 41.477
1 30.4634 49.6661 48.0228
1 47.0691 15.0988 32.3188
1 12.9041 6.86481 18.4127
1 13.6762 42.2319 2.31498
1 46.5077 32.9729 0.541361
1 48.4972 27.0139 47.0918
1 5.15611 6.86388 26.1059
1 30.7188 28.564 34.9116
1 6.49978 14.6069 28.4186
1 36.6136 34.2026 30.4884
1 39.837 47.704 41.6051
1 28.5937 11.2661 8.17988
1 18.0234 14.52 24.1655
1 9.61619 17.5293 45.116
1 42.3218 49.6157 14.1969
1 49.0958 14.921 41.0534
1 29.6516 1.65539 32.924
1 6.28977 1.48907 42.8097
1 29.2808 30.7988 5.4324
1 21.7747 38.8324 27.2002
1 19.4016 2.38669 41.6631
1 11.8847 7.18068 41.6169
1 4.32494 4.11544 23.9711
1 41.7919 25.0216 9.73147
1 12.2259 30.479 46.9989
1 17.1124 42.6538 38.938
1 37.2886 11.8983 48.1639
1 18.4476 29.0414 42.1224
1 25.4293 34.198 23.356
1 3.48626 17.5067 42.5591
1 13.019 17.5048 20.9268
1 3.6512 0.418515 26.0175
1 20.7597 16.7696 44.2234
1 -0.0528464 18.2196 7.34413
1 19.9467 7.86758 20.8347
1 20.1746 1.4266 17.5509
1 18.5136 34.9967 40.6153
1 13.8246 5.9453 38.1742
1 0.775394 26.2309 31.9545
1 28.9682 9.77353 35.2642
1 0.0714153 41.126 13.2345
1 17.3573 22.3005 31.3428
1 45.4515 35.9806 11.4276
1 6.97561 43.5286 39.2748
1 35.2899 24.6843 36.3772
1 6.87136 25.395 44.9934
1 4.21165 19.6528 45.8248
1 29.4179 29.9636 30.2901
1 47.2504 5.32832 8.81079
1 29.95 36.0581 34.2611
1 19.9015 45.1659 44.5991
1 47.9046 26.4417 15.3911
1 1.71372 41.7874 4.40458
1 21.776 5.65089 26.4212
1 46.1198 3.51252 42.3251
1 25.6213 7.71379 7.65128
1 0.46128 1.09592 33.5763
1 18.4568 1.29811 0.710868
1 27.2077 7.80826 33.9402
1 3.97261 33.2786 31.7433
1 48.7538 24.5932 43.1147
1 30.8642 15.7075 46.8922
1 4.89159 23.8745 32.3589
1 15.2396 44.3324 13.13
1 43.6485 27.3747 0.623338
1 33.0603 19.8504 35.1471
1 2.96372 35.7341 17.6132
1 8.39218 38.0179 25.6012
1 5.57051 45.6251 46.4576
1 15.2312 15.5168 0.302898
1 1.27052 41.8213 19.6794
1 45.0747 23.6822 26.9662
1 40.2211 32.342 25.0048
1 5.54455 47.1795 16.6762
1 10.4907 48.7971 29.3897
1 43.9018 21.6177 37.5897
1 4.27912 25.9218 29.1944
1 8.62169 12.2635 41.0672
1 6.85256 0.825119 45.5122
1 3.32451 49.131 15.7332
1 45.0738 24.2319 29.6477
1 45.9713 27.8381 36.9114
1 18.4977 38.8809 29.2225
1 37.6952 7.72814 22.172
1 2.11313 33.2082 -0.0552596
1 49.1296 28.1588 14.0117
1 11.185 41.2969 36.5689
1 16.8364 33.0626 36.9959
1 15.5811 30.74 2.66395
1 1.62592 15.6934 40.0173
1 42.4594 44.3063 2.203
1 8.03994 43.3486 4.55776
1 11.7486 29.9918 23.507
1 8.35042 35.0337 43.536
1 35.4241 16.1283 19.0495
1 44.9058 32.9625 40.347
1 5.75807 45.7305 42.048
1 15.1031 25.7197 20.3435
1 7.34846 38.8713 1.69725
1 19.7671 31.6646 0.298579
1 38.6808 4.63368 9.47794
1 12.5757 18.0456 45.1006
1 12.0224 48.0048 26.6675
1 17.8701 1.17991 28.9531
1 39.7004 46.3073 30.288
1 2.13582 33.2313 46.286
1 43.779 24.2408 20.0094
1 1.07417 37.6921 2.8198
1 28.3442 49.3228 9.38145
1 26.4052 38.7185 27.5144
1 40.7244 0.0517325 2.42753
1 30.2208 45.0514 43.2602
1 33.8842 9.26979 41.8591
1 13.8291 15.965 9.39054
1 4.43308 37.6132 4.85384
1 30.5532 13.1597 7.84653
1 28.2173 40.3622 32.284
1 3.13273 26.4938 0.524532
1 26.997 18.6034 6.5
1 12.8384 15.293 3.04168
1 30.8776 17.7717 15.3932
1 38.2481 44.38 33.9179
1 23.5126 2.71877 28.6162
1 11.8817 41.0214 29.5591
1 1.00306 45.845 34.2274
1 43.9346 47.6459 19.815
1 6.28066 21.5603 22.5633
1 36.5852 9.37735 8.6923
1 20.531 23.8329 3.38702
1 5.62444 38.3899 32.1718
1 6.54794 39.6377 41.7188
1 17.9527 22.8346 36.2056
1 11.3053 31.6803 42.4603
1 31.173 27.0181 23.3395
1 49.2906 43.3261 3.77276
1 41.0826 6.46406 41.9934
1 25.1416 34.554 0.308921
1 10.7985 20.0804 1.05743
1 14.1113 32.0542 43.38
1 43.7703 47.5886 28.6128
1 40.8887 0.322502 43.1572
1 22.9363 17.8659 40.8936
1 32.1476 4.10647 48.4779
1 27.5567 8.33648 44.2345
1 15.0537 8.88895 44.7951
1 11.3531 8.82763 23.1979
1 17.1137 9.4074 23.2911
1 21.8211 20.3625 6.50854
1 11.5413 12.4266 8.93947
1 20.0327 28.5185 32.6124
1 41.7871 0.897824 23.0971
1 11.6463 11.9866 40.6702
1 22.8704 33.9349 20.0729
1 30.9475 32.2924 42.8018
1 48.3323 35.3443 39.5808
1 12.0276 15.4778 24.2723
1 26.7789 44.0964 2.5317
1 26.0736 41.4516 13.1192
1 28.1575 12.3457 27.9052
1 37.8427 20.8933 44.9418
1 2.06721 27.0244 35.8184
1 30.9536 8.34898 47.4376
1 19.861 15.0309 3.49369
1 11.396 2.56622 10.5451
1 7.9246 47.897 9.32264
1 30.4051 0.661168 1.04345
1 9.27751 12.5365 21.8949
1 49.4727 30.1897 29.5428
1 1.57628 20.3991 22.702
1 11.0302 5.83928 21.4497
1 31.3861 40.1666 46.1787
1 34.1228 22.7863 19.9115
1 45.7077 26.658 21.7872
1 35.1913 3.89482 2.90619
1 44.0514 16.0192 31.0375
1 3.23344 6.79221 0.0305212
1 0.961988 21.2697 15.1234
1 13.5632 30.7481 32.8336
1 45.4023 0.810156 44.8222
1 31.8134 46.7299 24.5954
1 10.8469 10.8982 30.3807
1 35.85 12.0758 28.6741
1 19.0127 26.1465 41.3787
1 3.13295 6.4907 19.4856
1 30.6064 40.4856 40.2544
1 31.7537 5.21326 7.02048
1 18.6446 34.5536 37.9251
1 42.0212 24.9017 12.3532
1 32.6175 20.6415 20.8967
1 27.2455 10.9244 45.2368
1 8.58989 33.7317 25.4055
1 31.737 42.0143 17.7001
1 1.05236 42.3957 26.7852
1 40.0454 8.19672 11.2993
1 7.00628 8.5675 27.011
1 24.1042 28.0035 29.4569
1 39.3585 39.8203 41.0245
1 26.9883 5.43415 26.0772
1 42.7067 34.3755 27.5984
1 47.4882 19.9307 34.9278
1 8.47578 35.4515 3.6965
1 19.9874 33.076 10.5166
1 12.026 18.0711 13.9275
1 34.6029 34.8038 37.6522
1 14.5806 3.74767 49.3929
1 31.8453 17.4051 38.8131
1 21.9487 16.4558 1.88251
1 46.6596 34.9369 21.4971
1 26.4587 23.5213 34.9388
1 17.6818 31.9211 34.7318
1 29.3491 13.4435 12.8678
1 35.0263 28.0252 42.2485
1 8.49083 16.9933 25.3875
1 19.5349 33.0789 27.2392
1 44.2617 37.1583 26.1321
1 8.53555 15.3294 4.77798
1 3.40301 17.9006 27.3567
1 41.5192 9.46737 20.2102
1 33.8763 48.078 0.518271
1 36.465 6.4223 3.49077
1 4.4148 20.5244 9.05485
1 0.833429 43.215 14.4212
1 16.5446 42.4198 2.9089
1 30.9569 43.1181 35.6935
1 4.65552 32.4505 37.2155
1 36.8521 43.0437 37.2072
1 9.51124 25.1343 30.3823
1 20.02 49.2941 7.44674
1 35.3298 38.4067 43.6808
1 0.109008 11.2255 32.7099
1 43.5311 44.2834 32.9655
1 37.5394 11.9459 23.4863
1 32.0937 8.14074 3.47091
1 24.3482 19.8462 34.3671
1 4.11519 2.07144 10.6148
1 47.9757 44.6005 5.59178
1 14.8732 27.9659 44.5014
1 32.1872 34.2603 1.16652
1 45.8021 3.54202 45.4539
1 49.1757 40.1467 24.267
1 20.2317 21.3568 19.1178
1 8.6733 38.6122 17.2368
1 26.7723 42.0781 36.3239
1 30.5756 30.7054 8.05737
1 39.5381 14.8233 8.2767
1 32.257 14.8785 24.1842
1 4.66268 7.52625 30.5517
1 45.8106 44.4292 40.0923
1 14.4512 0.980202 22.5554
1 30.9797 3.25797 3.98314
1 40.5454 4.47857 2.13442
1 36.6917 17.413 17.1429
1 29.9789 39.4701 1.19984
1 3.86432 10.0116 14.4521
1 31.0349 45.5968 40.5598
1 7.98267 46.2612 15.7614
1 12.4223 47.2763 44.6458
1 24.1103 7.65614 14.741
1 31.8003 28.5157 11.0271
1 7.00843 42.2825 43.4812
1 45.9776 3.03091 36.1806
1 10.3944 2.06001 18.8288
1 20.1516 1.7786 12.2149
1 2.52226 31.2874 14.8608
1 49.3047 12.231 5.03135
1 22.3045 22.9693 20.0583
1 24.6991 40.1599 11.0589
1 1.13612 18.4127 39.6187
1 1.12544 26.0465 13.299
1 16.4682 15.0769 34.8182
1 46.5069 10.3815 31.7004
1 17.603 28.8036 6.61327
1 34.9309 5.40493 38.6246
1 3.41451 2.77769 13.9537
1 18.1573 34.1314 0.269447
1 29.85 30.5166 23.6461
1 25.5573 14.041 6.16159
1 21.1304 46.2941 10.3074
1 14.5924 16.0789 23.0042
1 10.4015 23.8884 32.4074
1 24.1067 39.2502 30.7375
1 38.0821 49.4174 12.639
1 46.0943 27.1041 10.6663
1 46.9546 46.6117 17.837
1 37.7859 1.96626 46.7511
1 40.7073 45.1183 20.5307
1 36.7678 23.8555 34.1701
1 34.7765 13.9667 39.0817
1 29.7927 3.61369 46.2152
1 43.6775 29.7433 33.7782
1 39.6081 31.6731 33.3417
1 48.0525 28.1602 21.8299
1 20.144 15.7662 11.1939
1 27.0274 1.24168 48.769
1 5.64081 38.1416 29.4479
1 36.5309 18.5869 32.4823
1 2.38721 29.0806 47.9956
1 17.6675 4.66015 26.0287
1 31.0636 40.9114 43.0082
1 29.5399 5.68387 44.5343
1 19.0524 9.29236 12.2008
1 38.7879 2.95171 13.667
1 44.2376 47.1398 22.509
1 43.837 13.5927 29.5284
1 28.189 37.179 29.3853
1 15.608 30.0027 49.7753
1 38.488 9.05722 6.68232
1 14.1826 22.9616 30.6411
1 7.98304 0.148688 29.8881
1 36.3102 36.5229 31.2513
1 36.1683 47.3197 3.06577
1 11.8352 45.0413 16.0809
1 34.244 42.0928 18.0416
1 11.0153 31.625 3.26867
1 47.2491 0.940227 42.3896
1 16.2384 40.1087 10.9376
1 40.3056 20.0655 3.18101
1 5.49096 39.7272 3.47745
1 31.5767 31.5563 17.2851
1 42.5275 26.1585 3.10036
1 27.2796 28.4796 10.6139
1 16.7114 41.7755 6.87578
1 35.412 47.6511 20.526
1 35.6282 17.5754 46.4681
1 38.7855 20.7091 28.1041
1 5.57673 12.2848 24.2034
1 47.6038 44.7771 12.195
1 20.0003 29.3864 8.11075
1 6.01068 42.0614 49.0891
1 36.9184 35.1369 2.55045
1 44.1979 26.3147 8.78107
1 23.9895 32.2005 3.19726
1 5.02014 28.2501 30.4089
1 11.7339 32.3535 31.6048
1 33.885 27.4731 49.4904
1 48.415 44.4335 39.1609
1 28.5568 0.822905 22.6711
1 5.48146 42.2992 30.1808
1 18.8539 38.3458 47.5211
1 8.49118 2.364 10.4921
1 39.2318 15.5691 3.89792
1 1.57519 40.8858 31.0964
1 40.3546 35.8697 5.49367
1 10.8595 44.7075 4.92199
1 13.657 7.41488 35.9668
1 19.0509 16.4106 47.7923
1 46.3593 41.8077 32.0772
1 27.3491 43.15 18.0038
1 9.4274 2.87883 4.56862
1 7.01122 46.4519 1.56857
1 26.7935 17.512 17.1877
1 36.1522 37.227 25.7319
1 25.9524 3.46124 10.1336
1 5.31578 12.6787 5.90667
1 39.9293 30.2431 2.78094
1 18.148 11.8431 32.8086
1 7.62561 32.7457 42.3331
1 46.6108 12.452 35.6886
1 31.1527 47.6971 6.10208
1 47.4344 20.2579 2.64639
1 15.6694 34.0798 27.5715
1 19.7633 49.0729 13.6279
1 43.9876 0.418683 29.4287
1 19.9785 27.4102 28.5881
1 28.9159 20.0013 5.15342
1 28.8314 7.44457 23.0418
1 40.7417 14.1 45.4677
1 33.8032 38.2881 20.0021
1 13.1638 36.7256 5.18219
1 45.2728 42.0006 47.297
1 21.1708 41.7986 32.758
1 23.4086 49.7457 45.3739
1 23.5705 6.02084 16.8376
1 47.7854 39.5615 31.2533
1 10.6351 1.12351 43.7608
1 12.8374 14.1517 16.1097
1 45.5633 46.8395 9.01279
1 10.8511 16.6571 19.6136
1 2.26697 29.4612 17.1065
1 16.9785 21.4835 10.5155
1 -0.223744 7.2748 22.5539
1 40.5633 33.3453 4.42235
1 8.67047 10.5171 43.2011
1 13.8632 37.3505 21.5331
1 45.9441 37.4217 9.10247
1 13.5941 26.1335 48.4719
1 0.958144 35.6724 45.7405
1 47.4443 7.16047 11.0604
1 9.65242 2.72268 47.4259
1 28.8129 28.2733 22.7
1 33.7019 45.4439 46.3611
1 24.9623 4.41663 36.2927
1 44.0363 17.5203 2.81421
1 21.9824 15.3327 24.8671
1 27.8297 25.6987 33.6515
1 10.6422 9.81353 16.883
1 33.4229 17.7102 4.4553
1 27.8773 0.78595 1.9585
1 14.7383 11.478 35.4031
1 9.08707 17.1032 7.35223
1 14.8269 21.2561 46.0641
1 0.561635 20.5204 41.8557
1 47.3186 40.199 35.973
1 0.55541 36.7492 43.2386
1 6.89921 17.4167 44.905
1 22.9677 26.5873 9.9225
1 47.2846 20.4374 45.1696
1 20.6838 48.3188 16.3702
1 13.7993 4.3364 4.28551
1 41.0239 31.568 29.6771
1 0.642864 29.0215 45.4523
1 15.9686 7.96007 42.0057
1 13.0076 42.2066 43.9592
1 10.4784 32.8037 15.0883
1 48.4121 26.9799 35.3972
1 33.0962 23.4214 38.4645
1 48.8998 32.0682 42.3067
1 12.4298 1.1882 15.3606
1 3.43677 4.63392 4.20407
1 14.1168 19.2003 30.4192
1 34.198 33.5559 29.2639
1 37.6187 47.6887 16.9505
1 5.2187 36.0234 13.413
1 26.5177 2.75045 13.8893
1 1.929 42.0579 48.1214
1 36.2242 2.95169 7.26246
1 45.4449 48.0119 34.5201
1 27.3309 42.9052 10.6867
1 34.1323 14.4669 4.56665
1 27.2433 29.7721 43.9503
1 39.9323 29.0815 37.6791
1 11.9693 25.7367 33.845
1 21.6712 6.75966 35.9211
1 40.7359 45.5061 42.649
1 10.0763 25.6694 12.866
1 47.9682 21.1468 38.4665
1 29.9212 33.6953 20.1909
1 23.7487 7.51459 5.47548
1 10.9971 10.5582 34.8004
1 38.8142 8.29786 19.8772
1 7.58226 18.2956 17.2192
1 13.7612 28.1387 17.8097
1 6.49737 33.9497 7.39342
1 24.8178 44.6089 40.4164
1 1.55051 0.806587 4.92598
1 47.9372 36.9276 15.3612
1 48.228 25.7003 10.0295
1 19.1842 43.284 3.84249
1 26.4188 15.1866 36.8936
1 27.7656 17.3248 46.9589
1 40.2647 44.6784 6.11012
1 48.3449 27.6528 41.9563
1 11.9723 48.2762 15.181
1 24.558 18.4244 23.3361
1 29.997 47.9416 19.1119
1 21.7238 17.3714 18.8191
1 42.8026 10.3546 8.11815
1 36.0203 9.54869 23.01
1 22.8182 36.8119 2.74606
1 6.37837 33.2916 46.5922
1 28.6395 29.4665 47.9549
1 48.6559 38.2324 4.87527
1 26.5389 26.6764 7.18627
1 44.9698 16.3372 41.9256
1 5.24206 23.2844 41.1632
1 12.3285 20.4308 43.9682
1 8.2858 28.0257 37.8711
1 2.10321 16.9049 12.6824
1 26.515 2.54979 3.77058
1 6.44184 45.7663 21.0641
1 7.37328 39.1461 37.2764
1 39.235 20.9954 6.83015
1 28.7597 12.879 23.1086
1 32.3122 47.3971 48.3131
1 11.5462 4.71673 47.0861
1 30.8253 37.9959 43.322
1 46.6135 13.7852 5.11632
1 39.4427 39.6409 10.1788
1 5.06028 21.6373 25.0922
1 4.64585 24.4697 6.39464
1 16.2636 32.9569 46.3755
1 20.6458 48.9459 43.907
1 30.1708 45.4461 7.84358
1 31.2478 23.601 28.5897
1 30.3006 47.138 15.8117
1 10.7175 4.72452 31.0188
1 7.65925 14.7247 41.5895
1 20.6822 31.6424 20.5849
1 4.80848 40.2113 24.2158
1 37.1472 19.1699 6.93591
1 15.3408 13.534 23.0059
1 22.2196 8.89881 39.3973
1 25.6681 36.3063 36.5291
1 30.1228 14.9567 30.2015
1 12.0383 21.1346 14.0232
1 19.3828 25.8511 45.1324
1 12.9069 4.17301 1.6496
1 6.96895 4.96216 30.0622
1 42.6643 18.7422 12.624
1 4.17041 29.205 45.3194
1 36.6526 1.90383 27.6784
1 26.4535 5.73815 45.7576
1 40.0276 48.7274 22.5503
1 25.2056 31.4279 5.55862
1 49.0674 24.8383 17.3855
1 0.394288 31.2373 12.8265
1 35.4028 32.3298 34.2046
1 34.5218 28.1518 33.9008
1 15.1498 7.46412 47.2704
1 41.7263 7.72431 17.978
1 36.3048 27.3133 31.1781
1 10.8643 49.0792 34.6908
1 33.1747 41.5282 30.874
1 23.7404 8.27398 1.03689
1 1.49285 15.0607 44.4315
1 48.1236 7.87863 5.32028
1 11.9798 44.7492 8.06772
1 41.0132 27.2103 13.8445
1 26.7209 8.0279 18.6391
1 48.2911 45.8239 23.1095
1 46.7509 14.008 21.5466
1 43.3842 43.2428 29.3836
1 10.4265 29.1294 7.51334
1 6.05711 33.9237 21.9871
1 12.4322 43.8816 48.8148
1 48.339 9.14617 38.0685
1 31.4281 43.2282 25.1563
1 16.1629 20.3573 41.0844
1 17.7281 1.9849 4.08175
1 32.8663 1.89517 38.5283
1 4.2838 16.1187 6.58845
1 44.2534 46.8483 37.4362
1 15.7536 4.78129 39.9743
1 21.8857 15.0767 41.1331
1 36.531 47.356 22.8051
1 19.5769 6.17493 2.88373
1 29.6445 15.2179 14.6955
1 44.7003 39.7011 26.9269
1 47.9846 1.28985 2.52719
1 16.6651 8.45426 18.0708
1 2.23927 32.193 2.63555
1 41.0671 20.2996 43.0497
1 11.5524 23.5694 46.1899
1 4.33571 11.3038 20.3817
1 42.7964 26.5516 24.3525
1 23.0931 20.9337 43.9431
1 9.39428 36.1391 39.5714
1 19.5272 25.9466 32.0316
1 3.46326 15.5716 1.68888
1 26.7595 17.9687 0.939117
1 39.289 32.5436 47.2229
1 48.8816 22.2442 30.6194
1 21.8152 47.7669 47.701
1 41.0879 18.1262 24.2394
1 43.9727 1.56289 26.939
1 44.4742 33.4743 43.2398
1 13.3777 38.8598 15.4477
1 15.6723 34.4218 43.8024
1 16.6964 14.3115 16.7708
1 2.91892 31.6291 23.4894
1 8.30596 38.5536 44.3613
1 47.1938 21.5718 22.5002
1 32.6326 4.12901 2.28832
1 35.5308 28.9339 45.7545
1 16.6259 32.0555 18.7161
1 23.2788 45.2843 47.529
1 16.332 44.23 20.4009
1 30.4146 25.7669 19.4087
1 49.5732 31.7112 20.0236
1 41.1859 11.6215 39.2119
1 21.7237 28.1349 48.1549
1 16.1039 41.7927 14.3161
1 15.1795 43.1854 45.053
1 24.5418 43.7126 49.7484
1 37.2089 7.56969 36.9226
1 32.888 37.9111 4.11964
1 43.8236 42.8055 36.5866
1 38.2608 38.0546 7.39659
1 48.6836 11.1694 30.156
1 15.7657 30.0543 9.64322
1 14.5618 3.72421 44.3262
1 25.1339 30.642 24.8969
1 10.1335 18.0271 38.713
1 38.7696 45.5677 47.4228
1 14.6603 26.9819 11.6947
1 15.3707 44.0608 17.5603
1 41.379 13.9682 32.2163
1 45.6427 19.3008 22.3025
1 22.5243 44.1261 35.2184
1 8.99612 26.3801 8.90607
1 10.3211 44.7381 20.2849
1 31.3447 37.1041 25.2895
1 23.0656 35.7479 44.9111
1 20.8782 35.8381 30.1879
1 31.2883 26.3961 39.4751
1 6.54125 30.1581 49.0467
1 18.89 30.569 26.3673
1 17.9609 17.6695 26.4149
1 24.6789 33.6238 29.8502
1 12.06 18.9028 28.6591
1 3.34676 9.13818 3.31124
1 45.2051 26.8326 5.24498
1 4.60337 40.3259 28.5199
1 9.40145 41.2204 16.4023
1 19.0427 38.627 15.53
1 39.8365 24.3058 23.7794
1 28.7284 37.9068 31.8623
1 3.13931 39.8734 11.2398
1 20.0281 4.96731 34.6095
1 7.70726 26.8257 11.0987
1 12.8653 48.0326 4.99283
1 48.9197 10.2481 7.02012
1 47.472 20.522 29.2375
1 49.7018 11.5969 2.34735
1 5.60901 4.43801 9.54659
1 12.0928 40.9423 17.0896
1 38.8623 41.2858 14.0054
1 47.4115 2.98272 4.60757
1 31.6506 9.69546 7.83911
1 49.2948 18.405 18.6659
1 18.7062 36.1948 45.822
1 38.4674 13.9853 5.74579
1 41.5195 10.225 15.1771
1 42.3546 41.5421 2.32637
1 18.2571 7.39757 32.0396
1 28.1619 36.873 24.0276
1 28.0775 49.1029 41.5329
1 29.4173 24.9788 26.1486
1 32.3539 36.1709 36.4734
1 47.762 29.0367 11.8574
1 46.3775 38.7542 17.3266
1 45.2696 38.7838 34.4518
1 20.1226 6.64297 7.24878
1 19.8634 45.3749 37.6525
1 19.4235 43.9343 19.121
1 38.8334 10.9164 27.2304
1 0.869451 27.4049 4.91412
1 37.8708 21.9302 36.8123
1 48.6722 18.4942 0.899427
1 5.06442 13.919 20.6362
1 20.1431 10.2309 1.70693
1 3.89539 1.83133 5.69344
1 34.4199 42.5766 48.4547
1 21.4821 18.5437 12.2868
1 32.3284 31.1607 35.217
1 2.89577 26.7584 18.2765
1 47.5396 6.54406 39.0925
1 39.8272 45.3248 26.3047
1 4.61661 38.2503 17.0914
1 24.0293 28.2429 22.0543
1 34.0307 23.2365 24.7192
1 12.0582 31.4184 28.9638
1 25.4242 30.2105 15.1114
1 29.1482 9.75549 26.6195
1 47.8053 42.7674 48.3243
1 12.8536 0.880196 12.5708
1 4.33261 39.4106 8.62265
1 19.1785 25.2829 22.359
1 16.5627 28.2794 35.0714
1 14.3529 20.1358 7.10692
1 20.3517 4.9263 12.5465
1 12.9447 39.3291 1.09618
1 40.4272 39.3075 13.7453
1 19.4434 39.0553 3.60248
1 48.6291 31.315 24.2225
1 11.3897 37.7102 26.2587
1 9.1668 40.1208 46.9353
1 4.27401 30.345 2.916
1 30.9264 16.2978 4.43179
1 23.1709 33.2451 22.977
1 13.4631 0.981586 48.5124
1 25.2876 36.3732 30.4848
1 37.6509 6.29156 27.3792
1 46.7121 35.6214 2.99726
1 10.4505 15.562 16.217
1 1.91816 4.92077 10.5063
1 34.2687 47.9787 24.6711
1 32.3551 6.04834 40.784
1 17.7864 5.84782 35.9261
1 33.3905 39.4327 26.6642
1 10.3768 7.48508 17.9483
1 42.3527 7.7946 25.8969
1 0.825652 30.1092 38.6679
1 29.9736 15.829 25.5602
1 38.7857 26.0594 26.7484
1 16.7004 40.9931 0.613398
1 45.7484 30.3884 49.0479
1 19.3936 47.8231 34.0346
1 14.8886 3.78035 31.459
1 20.9551 2.17392 37.6877
1 42.9968 28.4883 39.5496
1 44.5341 40.8771 0.356947
1 32.1241 30.2507 21.7168
1 16.3246 44.8214 10.5745
1 18.004 15.4881 14.5879
1 41.3063 25.568 34.5669
1 40.6723 22.6603 14.099
1 32.4257 35.7166 12.1142
1 37.3269 21.1202 32.1491
1 6.02208 44.4987 2.95907
1 42.7 13.1902 0.638432
1 37.8969 22.8437 43.1759
1 -0.0378051 49.5041 23.3344
1 8.19977 41.6641 30.9911
1 44.9127 23.2678 22.4219
1 11.8297 13.179 31.8385
1 13.1699 15.2776 44.0334
1 35.94 40.5688 14.2796
1 21.4603 43.8659 7.95366
1 26.9487 47.2772 29.9137
1 13.3497 1.46823 40.6677
1 17.4989 38.1221 22.035
1 45.4655 18.1077 25.8706
1 7.37968 20.0464 32.7359
1 30.0494 32.2843 35.4934
1 10.6699 24.4676 1.24651
1 29.1318 4.0688 31.7044
1 44.594 15.2147 46.1874
1 46.656 8.17311 33.3085
1 19.0074 24.3913 17.2793