4096
 Atoms. Timestep: 6780
1 49.0718 25.9252 39.4132
1 3.35645 11.8759 6.30585
1 27.3679 6.61066 16.8383
1 27.2341 6.88768 48.9964
1 13.6878 6.95587 17.5327
1 31.2818 10.9002 25.0074
1 26.1069 47.4369 30.6466
1 47.8813 20.8615 44.8845
1 5.98158 5.20272 26.4582
1 29.041 2.34928 24.0827
1 7.86369 45.1532 44.9654
1 19.5933 31.3691 12.0343
1 44.5031 18.4258 39.1104
1 24.7277 39.833 16.5235
1 27.5474 31.2406 44.6578
1 40.4236 5.70603 13.0946
1 48.9718 5.49757 39.7255
1 48.8345 46.0947 16.1683
1 12.5279 26.6535 38.1383
1 10.8905 32.1123 10.4841
1 42.4951 10.4757 11.8031
1 28.096 41.4032 21.3147
1 11.115 6.16664 43.169
1 33.6941 21.1948 15.9838
1 40.463 46.0174 11.8209
1 14.4497 11.9487 46.2876
1 12.7162 20.2953 4.51408
1 1.18734 22.1105 24.6928
1 8.83137 6.99637 47.1362
1 8.23059 31.5541 1.78217
1 38.5918 33.567 13.1148
1 26.8565 20.0664 8.20217
1 40.4901 12.1992 25.2338
1 17.6557 13.4713 22.8641
1 45.6245 46.526 48.6615
1 32.1253 46.1592 43.0271
1 35.3812 40.1027 47.7655
1 26.6276 16.2741 35.0808
1 9.13457 22.1264 43.2368
1 8.21332 23.2005 31.6298
1 23.5751 32.5104 3.34296
1 37.3643 28.8276 31.7699
1 19.2602 47.9051 20.4399
1 24.4789 48.4296 49.0835
1 18.3857 27.6904 9.54415
1 2.77901 45.5969 28.9453
1 24.4338 19.3837 36.4668
1 1.60025 15.651 5.528
1 28.1085 4.50538 18.3571
1 5.28706 15.6242 3.29034
1 5.33481 14.3078 9.4175
1 5.68371 9.14936 40.5515
1 17.5641 16.3519 29.0465
1 8.19095 0.35448 40.0457
1 21.2601 45.8054 49.5024
1 15.1784 13.7708 13.4441
1 25.8576 47.1593 33.4252
1 9.60019 8.00118 7.27605
1 32.4265 1.82617 45.6079
1 4.06563 14.7901 25.9733
1 25.9289 17.0142 16.283
1 48.8193 23.0829 27.9417
1 9.4309 11.5905 18.5699
1 11.161 45.7077 46.2102
1 22.6143 38.2659 0.780488
1 49.3524 18.5731 45.1168
1 37.4842 49.599 21.9637
1 1.32085 17.6003 18.7071
1 20.4349 2.25414 16.5481
1 42.2391 36.1031 13.3748
1 49.5377 40.9676 48.0727
1 26.2822 12.5229 0.428011
1 12.016 41.1884 25.9462
1 46.9538 25.0463 49.661
1 47.6703 24.1527 47.3294
1 10.0169 16.1471 3.67519
1 15.4321 15.7876 20.7169
1 42.0258 28.9257 32.3213
1 18.9924 29.9253 43.0584
1 5.25585 40.3614 15.0001
1 42.3957 8.2918 40.1178
1 30.1548 33.8492 0.103777
1 4.27029 32.54 33.8588
1 25.6146 0.228502 1.43578
1 12.6885 34.5973 43.5518
1 22.179 28.9909 36.781
1 20.1362 45.9192 7.36448
1 26.0913 22.6758 21.6574
1 16.6509 8.06119 17.92
1 18.1361 21.5915 17.9939
1 45.1175 3.07873 47.2812
1 36.8331 15.248 18.0013
1 14.9464 45.9978 8.76431
1 47.9774 47.9441 13.9683
1 27.1464 7.25811 32.7361
1 10.9705 47.6425 11.1576
1 32.1492 31.6818 16.9668
1 32.1018 44.7098 36.0184
1 41.9521 20.678 8.05541
1 10.0819 11.4683 5.34823
1 45.1092 1.36155 41.2796
1 40.4687 35.5908 0.0151059
1 1.97828 15.7648 42.9771
1 27.7051 23.8545 7.73345
1 13.9588 26.2455 12.4154
1 40.7164 19.2746 42.7159
1 35.6629 24.5073 20.7367
1 14.2177 28.2469 21.9726
1 28.6938 24.6773 45.5552
1 24.5812 2.23028 12.4816
1 28.5679 41.7344 26.6476
1 10.3504 2.43721 37.2868
1 0.0688267 43.314 6.36337
1 35.333 28.3533 27.7277
1 20.6407 46.558 27.2625
1 23.9687 5.44529 3.31886
1 17.7882 14.035 7.24541
1 11.9919 19.2265 41.7399
1 25.2051 35.1187 17.4136
1 2.06244 4.06028 29.4891
1 9.65869 38.3735 14.0169
1 9.1264 11.5924 28.4527
1 28.1732 36.236 14.0873
1 12.5279 27.4856 49.3679
1 9.53599 1.72437 16.5912
1 47.2967 20.129 11.3913
1 17.1093 42.6147 8.84412
1 8.47747 39.8543 11.247
1 23.4507 17.8497 2.4799
1 23.6399 35.6131 28.0403
1 40.9129 9.54193 35.4578
1 14.0525 12.3847 41.8767
1 45.8406 49.2843 30.2734
1 45.3422 8.98078 18.5366
1 6.22856 29.3048 10.3957
1 41.188 8.92151 4.30613
1 5.87988 1.96443 0.238685
1 28.3253 25.5195 47.875
1 42.496 39.7481 29.7037
1 35.1847 40.0399 37.2156
1 11.1286 22.8394 23.2627
1 30.3365 1.6687 16.3634
1 12.2358 38.5746 3.25574
1 5.52877 7.15142 35.7356
1 33.1084 21.1548 39.6076
1 39.2266 30.5752 22.5952
1 31.9509 10.8577 2.89665
1 16.0763 13.0288 10.9679
1 11.2991 39.8986 12.1266
1 37.6758 25.2281 9.44028
1 0.465413 20.9615 22.3549
1 36.2584 43.1783 49.7146
1 8.45 20.0958 15.0682
1 30.3085 45.0945 16.2668
1 6.35377 17.7728 40.7388
1 6.44954 40.1299 37.8532
1 8.05711 35.989 35.8645
1 31.5651 34.841 39.665
1 12.8009 36.9539 29.8511
1 22.571 22.3211 13.5756
1 19.3731 9.64354 0.499816
1 4.0647 42.786 21.0331
1 18.6189 34.355 18.8558
1 11.229 13.3222 42.348
1 4.42006 23.16 48.9532
1 38.9486 49.5978 17.1607
1 28.641 21.7348 23.243
1 37.0822 45.1057 14.6651
1 10.0038 3.61566 42.2263
1 11.9015 25.0494 9.65702
1 40.7042 10.5559 43.9869
1 30.6248 38.216 16.7842
1 14.2897 26.1822 5.06158
1 46.671 19.9421 19.8578
1 1.17107 1.49003 4.97217
1 7.33985 7.36585 44.9306
1 19.8562 14.0197 35.6336
1 8.60958 33.6348 14.2257
1 37.629 22.4876 39.5834
1 26.3493 2.87754 47.183
1 38.2232 21.903 23.9206
1 16.4229 22.7985 44.8684
1 43.9024 12.0434 42.0326
1 35.8128 46.481 47.504
1 35.7109 24.4148 45.7681
1 16.853 4.29668 28.0427
1 43.3655 0.91633 27.0044
1 24.0781 5.98436 10.6333
1 40.5325 10.3987 27.6349
1 14.8802 7.40726 10.4795
1 0.930581 14.1532 44.714
1 26.2234 1.92104 20.3379
1 1.46025 1.82709 24.4032
1 48.762 44.273 22.4209
1 41.6942 37.8956 7.16538
1 6.53986 24.6861 45.3449
1 48.1799 20.2939 37.036
1 44.3929 22.4632 24.953
1 6.49864 2.33646 8.02178
1 24.9548 8.84238 27.591
1 29.2143 25.233 20.2703
1 39.1238 13.8575 44.018
1 28.1177 5.07283 23.1272
1 3.24151 33.0165 11.4371
1 22.157 7.77796 30.616
1 31.6429 40.0858 46.9376
1 5.08922 8.10565 22.066
1 21.3003 40.5439 1.76497
1 43.3611 16.1557 40.6232
1 33.6098 13.5156 3.59
1 45.3812 5.47124 42.8352
1 22.1081 37.8612 31.6809
1 1.20697 13.0209 25.3034
1 1.34469 16.8691 35.4097
1 48.7508 21.0952 18.3385
1 18.5675 45.2764 40.5252
1 36.3994 24.8296 16.4703
1 4.20394 5.6827 46.866
1 38.1715 26.3997 13.626
1 5.23731 45.9538 27.6338
1 27.802 10.1978 39.3105
1 19.7741 3.88853 14.5537
1 46.9447 21.4416 24.2247
1 30.5102 24.7912 29.4224
1 47.4133 20.9449 39.5792
1 1.49529 36.2722 14.2896
1 6.95013 37.383 22.1123
1 34.2469 23.4732 27.6153
1 9.03136 49.2306 12.1233
1 4.01759 20.7612 37.6354
1 37.9921 11.8044 6.30667
1 42.6104 30.7528 24.4208
1 36.9116 42.757 13.1113
1 25.2429 19.5058 16.1033
1 19.0251 2.79933 37.189
1 27.9381 41.4197 30.448
1 5.49749 12.9822 22.6205
1 37.2961 0.408217 7.57885
1 5.47956 32.7844 15.8771
1 3.24267 9.6219 33.0961
1 8.83619 25.0034 15.5755
1 19.4284 7.08556 11.156
1 33.2579 34.4689 3.82066
1 47.6916 38.7096 27.2663
1 6.68101 42.1578 28.2728
1 27.1518 27.0697 27.0461
1 18.1565 34.9719 21.2206
1 29.3559 39.0143 41.9279
1 10.4556 12.5397 0.828876
1 46.0697 22.3808 5.48645
1 22.0607 12.0703 3.25926
1 1.71258 1.00499 1.34372
1 17.4716 3.31102 12.8378
1 21.7392 37.6145 37.5961
1 41.6611 37.2678 34.6488
1 43.6885 25.6066 33.6407
1 9.20846 13.8899 24.9976
1 10.5937 21.1626 16.3473
1 11.738 6.07646 45.5024
1 47.2531 21.6529 47.2144
1 12.9117 3.09371 34.4192
1 37.7272 25.0008 26.7244
1 40.9429 1.97014 25.654
1 40.6427 38.9839 18.6121
1 20.9287 9.40267 16.4837
1 9.03059 28.1595 11.4692
1 6.86414 14.1648 1.54793
1 13.7904 36.3754 16.4257
1 6.33085 5.35236 43.2329
1 8.59875 19.4362 24.0985
1 33.2692 8.22722 39.9955
1 28.1253 45.9528 5.87501
1 4.18141 32.7889 41.4359
1 25.1446 36.7277 41.2013
1 49.3538 28.6375 45.2945
1 8.08775 28.4396 49.7017
1 26.2428 9.20971 12.3536
1 27.645 12.0062 41.3669
1 23.9031 11.442 25.9475
1 39.1835 1.07814 31.8939
1 8.36454 48.5585 21.8259
1 12.1769 11.0908 31.288
1 40.4714 43.1509 7.03385
1 48.1519 30.281 11.9708
1 5.21616 23.8736 34.0309
1 3.12416 31.2877 35.9503
1 30.5867 26.6949 40.4492
1 3.80187 30.5934 10.326
1 17.9205 4.11013 19.8767
1 4.50459 32.9968 7.20239
1 21.1053 31.8207 15.9081
1 41.0388 11.7442 48.3664
1 15.8263 7.517 32.6435
1 15.9884 29.9675 12.4877
1 13.4928 20.887 8.69109
1 8.71983 16.533 32.8663
1 37.307 42.7708 37.9793
1 38.139 20.7483 10.805
1 32.4175 16.541 35.0725
1 8.98637 3.86006 21.1529
1 5.85819 39.3837 10.2407
1 23.3567 19.5144 21.9129
1 3.62127 35.7778 44.7563
1 15.4222 49.6782 39.3328
1 1.85027 36.7858 11.2388
1 14.4021 6.09137 5.98445
1 8.60922 10.4764 38.7335
1 39.8948 8.34452 30.6919
1 10.7282 5.62809 24.8488
1 25.3488 12.7117 14.9108
1 4.67305 46.705 12.6449
1 34.3272 35.8488 38.9942
1 41.3254 4.83783 46.4661
1 23.3123 45.8767 26.2204
1 45.3166 31.6091 15.1624
1 20.603 34.3467 0.84754
1 23.8248 28.0888 10.7912
1 32.7509 21.1186 31.0228
1 16.4196 23.6245 39.9364
1 30.5324 28.3741 36.7754
1 40.0549 33.1185 26.4691
1 48.9988 31.9899 16.2149
1 14.5044 35.7925 33.1287
1 10.613 6.7149 39.5943
1 26.4203 24.7027 43.5787
1 1.96965 9.7046 46.1134
1 35.0604 37.986 18.4581
1 4.48446 26.8176 1.78383
1 27.9845 49.3089 32.3204
1 1.36108 23.2005 29.3494
1 35.0327 39.6707 29.4584
1 43.9963 22.1958 17.3331
1 9.872 21.1573 19.2203
1 46.3152 5.52908 9.98728
1 27.4049 5.95756 2.27027
1 28.9866 18.206 45.858
1 42.9247 29.6332 5.8805
1 34.7201 10.174 41.6325
1 7.11234 20.852 47.0302
1 31.5436 33.5946 25.1732
1 25.0021 2.01738 5.76221
1 47.7323 41.5253 39.1821
1 23.2179 24.1383 46.4234
1 9.38082 29.9945 21.5989
1 15.8409 40.1612 7.10181
1 25.3522 0.323878 27.3411
1 18.5963 45.2317 23.7609
1 47.4496 25.9568 30.0887
1 40.1603 43.6859 26.0082
1 6.0111 17.8286 33.1125
1 29.3349 14.9159 19.0336
1 45.8499 12.8886 33.1291
1 47.2243 25.2507 37.5102
1 47.5221 47.7897 42.9681
1 14.2697 1.13207 29.0671
1 9.52998 3.83891 32.2423
1 32.1378 49.4572 13.572
1 2.59622 1.11754 32.5678
1 9.30571 2.04203 34.9884
1 40.1355 43.1219 41.4416
1 15.2626 13.6377 6.22101
1 14.4236 23.4819 34.3627
1 45.5451 11.1757 16.5282
1 23.4807 16.0066 17.0613
1 4.67464 21.9268 31.4168
1 16.045 27.5923 30.2442
1 48.0713 44.7842 10.4194
1 49.5005 45.2529 32.6351
1 25.4294 32.1958 22.5451
1 44.6585 49.3442 22.0972
1 49.5066 33.1194 36.5428
1 16.7621 45.2944 16.8529
1 35.8863 11.3487 15.8586
1 45.0145 14.3493 40.996
1 46.6808 22.3166 16.6986
1 13.3717 9.60914 16.8105
1 7.55668 40.5506 5.89923
1 8.25957 4.67411 38.1413
1 29.5948 47.0498 25.6969
1 44.8563 10.1205 25.0726
1 44.2394 6.37482 18.1434
1 25.274 47.4862 37.9505
1 14.1293 16.3025 40.7847
1 49.5841 5.64109 6.77601
1 46.4753 13.7665 25.1113
1 20.5806 41.4403 35.3495
1 19.4635 43.9463 36.419
1 7.23578 10.7093 5.33412
1 1.36982 5.89084 43.7315
1 9.59661 4.59146 47.8646
1 43.0795 29.4601 1.03404
1 10.1964 29.9972 44.8198
1 29.3232 6.78939 6.59588
1 32.2964 7.60194 49.7853
1 12.285 8.43985 7.84809
1 21.0871 31.8458 9.77817
1 22.4398 31.1536 1.16057
1 27.1809 4.99785 27.5475
1 1.75603 41.0418 21.3692
1 3.4592 16.8632 15.637
1 8.42353 43.5624 41.436
1 3.1255 39.4142 11.1224
1 6.49485 1.4949 19.5103
1 20.1925 12.81 44.457
1 19.3297 49.3413 16.0651
1 12.403 10.9122 1.71556
1 3.51082 25.5446 10.222
1 31.6785 48.9556 38.6652
1 1.83013 8.30117 21.0317
1 20.7193 1.55407 25.5476
1 9.19692 20.2176 33.3799
1 4.17742 0.898871 18.0899
1 19.7431 0.292552 21.6822
1 6.87033 32.5631 49.5217
1 41.1922 2.57913 37.0983
1 8.36819 25.4912 28.7848
1 31.0744 48.5333 16.1761
1 13.2171 40.2094 1.11724
1 24.0334 15.776 38.684
1 10.3129 39.6017 22.5386
1 16.1041 9.91105 21.5167
1 26.782 11.651 26.4622
1 36.6743 47.5927 32.9355
1 11.398 9.40691 14.7847
1 46.752 0.377345 23.8796
1 13.7545 23.896 31.3888
1 9.86187 48.1955 36.3699
1 16.2799 30.2549 18.4828
1 37.015 3.86259 37.4037
1 40.4886 25.9626 48.284
1 23.9312 20.6279 26.5573
1 37.6822 31.4789 11.4908
1 30.763 40.8977 25.576
1 4.3175 37.9134 6.70334
1 33.8906 9.13644 22.6033
1 13.9364 45.2658 6.06122
1 4.24267 35.4296 33.8434
1 0.548581 6.79037 16.732
1 43.6452 10.7121 22.7201
1 38.6534 48.9561 9.48505
1 4.10703 36.3362 25.1863
1 13.0799 37.9263 13.2333
1 4.12793 44.3827 14.3144
1 15.3702 4.8775 16.5015
1 17.2616 15.6365 18.3531
1 18.1317 11.0494 30.2817
1 6.96005 17.6247 27.5874
1 11.9802 27.8919 3.75743
1 42.0736 23.5768 3.55267
1 13.9059 20.9931 31.4472
1 47.5155 9.3054 19.9989
1 17.394 36.2947 32.5504
1 1.53926 40.4714 38.5342
1 28.1851 7.60104 27.7557
1 41.6934 7.54184 22.1179
1 4.52482 39.5838 35.8401
1 47.041 40.5903 43.7306
1 25.6869 43.1524 31.4891
1 40.5569 39.7621 38.8055
1 30.7321 8.48353 21.4002
1 34.7899 8.1093 31.8145
1 15.4122 26.2868 26.8891
1 38.3455 9.26764 39.7185
1 5.87638 13.0346 6.96027
1 32.123 11.5651 32.8308
1 31.478 14.3657 17.2523
1 25.5413 0.754128 43.6346
1 33.4109 27.3525 11.2838
1 19.7077 22.3564 48.9718
1 32.1464 42.7139 29.058
1 40.9 18.5657 9.62712
1 8.70103 16.7515 6.00601
1 30.1818 20.5192 12.846
1 31.2375 44.6602 39.1406
1 38.4808 30.3587 4.702
1 9.01851 13.0983 10.9519
1 27.0727 39.0672 17.2137
1 42.8682 13.2317 23.6784
1 12.1796 8.09686 10.8703
1 1.17906 10.62 48.4328
1 2.9193 14.8182 35.5711
1 19.593 32.1393 7.31994
1 32.7338 9.13016 44.1724
1 3.95648 35.1907 36.6337
1 8.01766 19.9055 44.5236
1 4.7617 20.4013 21.1989
1 44.3851 31.7246 9.56535
1 1.0478 30.5567 32.9146
1 37.6314 19.2246 49.4091
1 1.96895 37.0753 34.4801
1 28.2862 26.6823 12.6028
1 31.8535 7.76029 19.1815
1 1.46881 13.5654 7.32775
1 39.6085 0.760308 49.2622
1 42.2082 7.18553 35.1663
1 35.2615 7.05805 10.1449
1 9.98006 12.5567 39.9333
1 4.71664 0.0490363 30.863
1 0.358398 45.8006 49.2408
1 26.7038 15.7314 47.1631
1 3.59827 8.09509 18.7415
1 3.19543 44.5888 41.5389
1 5.57504 21.9872 1.18386
1 31.5429 11.4962 15.9268
1 34.7292 8.31719 16.2432
1 43.9178 43.4753 3.11411
1 17.3265 24.2849 19.9164
1 16.3588 49.3726 2.76452
1 26.867 14.9422 1.4912
1 24.2247 45.9947 0.497451
1 0.1803 46.1625 18.6995
1 19.3316 4.39477 10.9199
1 19.658 26.4989 45.7004
1 36.7066 32.1607 15.3421
1 48.5394 30.5098 37.4952
1 49.574 21.7746 7.45464
1 25.0274 10.2774 6.05858
1 22.5512 18.5381 7.30923
1 12.5467 19.4004 46.725
1 34.567 32.96 25.1278
1 30.5719 13.5577 45.0828
1 49.3071 36.9772 9.60307
1 7.12591 23.8293 43.0778
1 29.648 48.7066 6.00597
1 48.5025 11.1226 41.687
1 24.6031 28.7272 35.1
1 9.40972 8.26287 43.0458
1 28.9539 41.3729 44.1747
1 12.3773 16.4057 17.5184
1 46.2419 29.7308 10.0181
1 24.0319 26.5382 46.4151
1 47.6011 26.7638 20.307
1 19.1689 23.2457 40.2785
1 2.2872 29.4386 8.51195
1 39.999 6.34427 4.789
1 4.06557 20.9271 42.9704
1 6.84644 46.894 34.2627
1 17.2399 40.3019 44.161
1 6.39589 42.9032 42.8929
1 22.5148 7.56384 20.7223
1 1.30173 10.6666 22.2002
1 38.4081 34.7682 32.2657
1 33.1048 17.3683 48.0398
1 35.2273 44.8481 9.46302
1 17.1717 36.4931 43.7107
1 5.71004 18.194 3.52424
1 24.2793 7.60587 6.74056
1 16.0217 1.5029 14.486
1 42.7601 9.01109 27.0188
1 45.0485 17.4406 48.9675
1 3.00531 44.237 9.46182
1 3.14727 47.2647 31.2212
1 20.7344 21.9725 17.5325
1 43.77 11.9011 34.5831
1 24.0803 12.1007 22.8705
1 10.6563 8.92389 31.2435
1 36.4807 37.2006 8.22936
1 31.9582 38.6131 10.0787
1 44.4766 44.688 18.1702
1 4.78944 26.6566 45.0132
1 47.2043 2.19191 4.74384
1 22.3148 29.3056 8.78224
1 5.07805 35.792 10.6307
1 25.241 33.989 26.6305
1 22.3329 41.3147 13.0919
1 8.63207 23.6828 20.2082
1 13.5203 20.9382 12.9893
1 22.8629 14.2808 28.8081
1 26.6911 44.7735 33.7548
1 10.5331 17.188 30.7433
1 24.4052 43.8746 6.80719
1 18.5902 49.2526 9.36483
1 44.5901 17.5135 6.0067
1 3.12284 31.8171 31.7161
1 32.1377 22.4598 37.1685
1 22.0366 26.6987 12.7982
1 7.90814 19.4035 5.88358
1 3.15699 37.8647 48.1653
1 23.4628 4.45145 32.2911
1 49.4344 49.7855 41.6531
1 49.4763 5.73217 48.0007
1 16.8009 21.5836 4.9123
1 5.35921 21.0153 5.58117
1 40.2995 41.5714 45.119
1 42.11 40.1984 49.4403
1 22.5688 27.0189 1.32664
1 30.5816 1.70229 35.9341
1 1.51727 34.6249 28.3181
1 17.9979 2.18938 22.5096
1 13.7011 38.7942 38.3322
1 28.8995 12.165 49.2676
1 8.90663 43.9971 24.422
1 12.5424 8.81355 45.6487
1 9.5018 33.1643 5.43911
1 44.2667 14.8363 48.4946
1 32.2386 24.4777 48.5994
1 33.3507 17.3187 9.89627
1 37.3228 15.8834 42.8333
1 29.4477 3.21274 9.62606
1 16.3961 22.4152 25.8249
1 21.4798 29.1823 2.45833
1 44.9541 30.6378 2.23353
1 49.1816 12.6284 48.0829
1 48.3977 6.85571 45.7086
1 14.8964 13.3024 16.695
1 41.8841 30.6318 34.8575
1 20.2076 32.8828 26.3135
1 39.923 27.3259 32.3438
1 32.7091 35.9527 30.965
1 20.8814 24.7943 9.00672
1 14.2438 49.0308 1.16891
1 23.2316 48.1475 24.1585
1 30.817 15.226 21.6095
1 0.128255 0.374548 44.6178
1 3.71511 24.6189 7.74265
1 40.3279 5.17427 22.2947
1 6.29917 30.9765 7.91306
1 34.9409 23.8059 39.3931
1 28.6821 20.3676 37.9166
1 29.4461 2.45997 13.9245
1 49.0921 34.2722 32.2284
1 39.7341 16.39 5.52974
1 45.588 14.0932 46.0012
1 16.7138 48.7215 36.9066
1 43.2878 10.875 31.0292
1 16.9835 34.2721 10.63
1 4.3691 37.3509 28.0156
1 37.2434 29.9278 36.1699
1 2.62646 28.7152 39.3659
1 37.2306 8.58663 37.0849
1 9.21313 7.5846 2.9529
1 40.8595 44.878 39.3376
1 39.2935 6.70552 24.88
1 10.2207 17.2234 37.9695
1 34.5727 32.4463 43.1132
1 41.4361 15.1802 39.1796
1 32.6831 4.81272 45.8799
1 0.266091 47.09 30.9071
1 29.0388 22.2416 45.1548
1 49.5412 32.0008 48.0858
1 48.0186 13.1917 27.8195
1 15.7736 18.1626 0.598193
1 12.2049 0.52086 11.497
1 49.6747 37.8091 1.28794
1 21.9969 28.5255 46.3957
1 11.2508 25.6678 45.5224
1 21.136 33.868 17.8582
1 5.1459 21.0384 9.86536
1 14.8918 32.2412 36.4935
1 48.4388 13.2 43.6972
1 13.8046 13.4022 9.92943
1 3.6327 1.31386 28.3075
1 26.6571 18.2357 37.4575
1 38.4079 4.3144 28.4859
1 22.2792 39.8057 41.2679
1 14.4867 28.0563 17.349
1 49.1855 10.203 37.7107
1 37.5641 12.9936 16.0958
1 7.03183 46.2147 38.7191
1 46.6654 25.3071 11.3712
1 5.80647 39.8082 0.901501
1 29.4564 46.3602 42.4923
1 34.2454 7.25665 20.5383
1 6.14928 18.5033 48.2997
1 47.694 16.5468 25.4482
1 48.0667 25.6723 27.5977
1 21.8876 49.565 45.2864
1 10.5849 25.8392 21.0053
1 28.4427 49.3858 39.4453
1 22.9925 34.5319 22.9909
1 7.4058 31.5126 36.2711
1 35.0945 21.1483 34.5556
1 29.9792 41.7371 33.5896
1 23.242 9.87779 1.91758
1 32.064 12.0375 12.3066
1 42.273 5.3475 14.782
1 47.5061 37.908 45.0419
1 21.9093 30.8325 31.6594
1 11.2547 0.354952 48.0688
1 15.8658 2.09059 26.8523
1 35.8618 8.84526 18.8827
1 35.7878 29.3792 14.3454
1 36.5687 32.7595 31.1836
1 39.6753 36.278 30.2162
1 39.7113 26.8183 5.87313
1 9.00722 17.6219 25.8416
1 2.68969 14.6035 40.574
1 16.5727 20.2827 46.438
1 23.6379 2.97575 46.9162
1 17.045 0.0565222 32.5642
1 18.2988 26.7576 12.0421
1 11.2842 45.4222 2.09451
1 46.5066 9.59278 37.826
1 9.97516 24.9291 35.2857
1 14.4172 36.3825 42.7076
1 12.8495 48.1492 31.5009
1 0.382461 47.0499 24.9861
1 19.6179 38.9367 20.6874
1 18.6102 35.0014 4.21746
1 2.86071 46.0428 48.0237
1 37.879 15.3142 47.0076
1 16.0688 34.5543 8.13706
1 3.34345 3.26962 1.4259
1 43.3034 3.48427 1.78223
1 46.4997 9.11574 46.0962
1 34.6584 45.2879 31.497
1 25.0262 15.2828 3.47751
1 32.8939 44.1654 16.703
1 7.60593 36.3679 16.2383
1 4.95689 1.23691 15.1933
1 9.04224 30.7586 13.9783
1 5.88605 21.0118 23.76
1 15.1863 11.126 35.2358
1 17.7742 40.9379 12.5031
1 18.8613 16.4147 49.1638
1 21.5846 6.23317 45.2082
1 33.7851 13.0049 38.6793
1 48.2502 1.8908 33.4437
1 41.3479 24.6564 32.4232
1 27.3715 16.3206 18.554
1 16.7949 41.2229 41.501
1 6.72625 10.3826 8.73434
1 46.6891 8.5827 49.0496
1 39.0805 2.36338 16.1188
1 0.818187 47.1938 3.2983
1 19.6593 27.1064 42.2409
1 25.7747 35.4188 45.313
1 33.5205 19.9445 47.8125
1 0.33466 46.1787 42.0307
1 11.4709 46.5329 13.6654
1 48.26 5.17878 32.771
1 48.692 44.3445 40.1967
1 44.6885 41.6208 30.3998
1 11.5977 22.5718 34.7172
1 3.22771 3.25616 14.5112
1 22.0443 5.47963 18.5851
1 46.1409 39.3985 31.6129
1 16.7118 12.6151 19.0136
1 45.9971 28.1373 29.9345
1 27.1361 29.8244 13.4707
1 19.6184 25.7717 27.5655
1 14.2943 2.31255 20.4093
1 28.3678 25.4248 25.2048
1 0.121243 4.11374 41.9416
1 44.8796 1.98139 20.5829
1 16.2426 21.0175 12.3541
1 26.3323 4.45897 32.6821
1 13.7378 32.3175 22.366
1 33.8175 26.3189 23.9492
1 24.966 9.03672 41.9564
1 40.0546 22.5663 2.29162
1 6.59423 48.6007 10.4504
1 41.7369 24.5446 25.7135
1 17.8033 30.9455 2.33049
1 37.2217 1.12611 36.585
1 43.4541 37.3347 30.2369
1 13.8276 30.3723 20.3639
1 2.46857 49.1614 34.7964
1 19.6876 37.5643 33.5131
1 0.698027 30.6147 0.289221
1 43.3021 16.6471 34.4643
1 1.68912 13.0088 20.7435
1 30.7004 6.92954 44.1225
1 36.1923 42.2366 17.8616
1 38.0376 9.49032 34.5166
1 46.8151 36.7537 16.6399
1 27.1736 43.5044 25.3698
1 2.62358 29.5084 12.4593
1 44.1902 45.6606 10.7411
1 1.74323 6.57713 36.1723
1 35.5036 47.6349 1.2041
1 47.8188 28.5139 18.497
1 36.1969 45.4522 42.9919
1 36.9945 19.4632 45.2297
1 13.1378 5.83718 41.3889
1 9.95771 15.0567 29.6491
1 37.3149 12.3088 1.55372
1 40.2519 16.3077 24.0472
1 44.887 38.8736 34.2102
1 31.8729 41.7544 13.5822
1 38.7066 34.0081 45.5747
1 46.5736 35.1155 32.2203
1 49.01 32.8382 11.7703
1 41.7955 48.8018 5.92131
1 13.7805 30.2479 32.7845
1 29.0673 35.976 39.2611
1 15.6736 0.878617 22.3257
1 41.6527 2.37563 48.9323
1 45.9039 44.7782 39.4924
1 9.98815 49.0072 1.66271
1 40.5423 17.7068 14.708
1 3.0585 11.9454 41.0823
1 5.26226 22.6846 46.6625
1 38.1225 7.88372 19.9818
1 41.7695 1.19493 7.7905
1 18.5562 8.89098 35.3071
1 9.5528 20.5069 2.19392
1 23.0505 33.246 29.9733
1 35.7052 17.4147 3.49624
1 18.8046 17.0211 44.5181
1 10.9194 49.6127 20.4778
1 1.2062 22.1269 33.3583
1 49.452 42.5399 27.5895
1 44.8964 33.2274 34.343
1 19.2011 32.5368 44.7663
1 36.7767 23.8513 5.4853
1 6.54009 46.9867 18.4103
1 15.0825 10.7488 6.17044
1 33.0725 18.4102 18.2547
1 25.6397 17.0292 32.4332
1 38.4683 6.33377 40.4099
1 34.3998 4.67275 26.1914
1 31.2996 25.4101 44.5021
1 21.2638 2.48923 9.73335
1 16.868 42.4404 18.4221
1 48.9171 0.430356 21.9434
1 31.0292 35.8856 9.8646
1 17.2797 10.7459 1.9223
1 13.7714 46.2271 11.4487
1 21.4187 40.7892 21.699
1 44.8841 27.4568 6.17607
1 25.3349 36.8762 13.2801
1 4.25044 12.3006 19.9152
1 4.62982 43.7851 35.996
1 39.6039 23.0075 41.3195
1 32.2255 7.06331 31.7756
1 11.227 32.7011 18.9251
1 23.3233 44.0852 4.06013
1 41.4974 34.1447 45.4253
1 8.36403 22.2016 0.315848
1 1.48187 28.2156 28.2826
1 22.5293 27.001 22.9677
1 10.7258 46.1581 38.4501
1 34.7701 37.0083 47.2562
1 41.8989 20.8127 25.7346
1 1.42038 23.8013 44.5355
1 31.2359 15.6359 29.8357
1 24.0003 46.7112 19.7203
1 10.937 35.4721 45.3164
1 20.0338 28.6571 20.525
1 27.5129 36.2694 6.81267
1 32.7956 18.2105 25.4872
1 2.03677 16.9935 31.103
1 17.5616 35.1559 35.5163
1 10.69 27.7369 34.4814
1 29.8638 49.69 29.8718
1 47.8049 24.096 35.2575
1 48.9305 38.7348 22.1063
1 16.6873 40.5201 4.65482
1 44.2195 30.8961 35.9033
1 24.6313 48.5412 6.0539
1 6.2794 7.68201 27.6336
1 14.8825 41.2317 2.99864
1 36.5404 9.12882 14.1483
1 32.3481 41.4097 16.1436
1 4.1048 1.53814 7.50211
1 29.6171 43.5641 6.08019
1 35.3861 35.9274 34.7444
1 25.7819 20.1999 23.251
1 48.6165 6.51087 10.7417
1 7.62884 48.5905 37.8209
1 8.67178 48.9073 6.42494
1 2.38216 28.9948 34.5882
1 8.51291 35.6525 2.3222
1 44.2284 22.1243 43.0197
1 46.0848 36.2659 27.0793
1 3.53795 44.5093 45.892
1 40.2223 40.0351 26.9696
1 10.6346 17.1818 42.4297
1 18.0916 44.2976 6.64815
1 49.5302 21.4069 14.7796
1 49.3962 2.44764 26.5976
1 30.3844 17.8317 33.7276
1 25.1805 26.271 36.7835
1 16.7095 49.0929 41.9151
1 9.33242 38.6021 6.95761
1 2.02942 39.8606 44.6623
1 48.1101 14.435 15.7886
1 43.1437 1.32426 18.2395
1 32.4638 5.80083 38.2034
1 20.241 43.1357 21.0274
1 5.36323 40.3381 24.3039
1 34.3819 2.12119 27.2755
1 9.92424 22.0135 8.82114
1 4.89199 5.10274 49.439
1 20.7222 26.7046 35.1615
1 20.3517 0.936523 13.028
1 5.84781 14.128 44.7019
1 19.7319 24.0884 15.7213
1 46.3138 39.3244 15.3193
1 17.4204 8.25408 30.2171
1 18.4143 25.5666 17.5444
1 1.89427 41.5633 7.44399
1 1.73671 29.6718 41.7027
1 48.7751 26.6345 8.41339
1 1.99917 32.9152 21.7715
1 17.7089 10.408 11.2472
1 44.1338 44.6814 43.3153
1 20.7613 26.8421 5.105
1 23.5683 1.17887 18.8853
1 34.4132 46.0453 15.4179
1 40.2551 32.3489 8.29521
1 0.470239 13.5833 11.585
1 41.9477 11.2214 14.4683
1 37.8314 1.78928 29.7522
1 23.406 35.4022 39.5161
1 20.8337 27.3477 8.01776
1 1.16417 48.1681 15.5192
1 2.291 39.4896 5.87876
1 43.7576 36.7794 32.9169
1 19.2141 29.2351 0.477588
1 40.4885 27.3528 25.5641
1 32.2741 49.6101 5.62376
1 42.1877 39.1528 22.3801
1 6.71357 6.09201 10.2923
1 39.6371 19.9802 44.9174
1 20.3441 45.7862 21.9533
1 41.295 26.1844 17.6961
1 21.4637 20.6078 44.4522
1 23.2776 2.21227 16.239
1 48.8952 17.9424 11.0161
1 24.5511 9.58154 16.4286
1 31.0166 18.9013 38.9643
1 41.6008 31.2914 13.6787
1 36.6623 23.417 31.8613
1 40.2326 29.2474 12.4301
1 14.4795 46.9403 48.8901
1 9.72335 25.964 13.2806
1 20.7997 32.3957 33.371
1 18.427 29.2168 24.7762
1 31.8967 25.8306 9.8516
1 5.56187 48.2627 15.8651
1 20.0548 47.7136 46.7354
1 33.8167 4.77898 29.5005
1 44.8832 27.5 13.9277
1 5.38729 25.958 37.7467
1 13.7106 5.76895 8.33242
1 3.15448 48.7041 2.5908
1 19.7944 43.3608 25.0987
1 38.9771 30.6276 48.85
1 47.4902 1.5152 19.842
1 40.6769 29.2456 38.4834
1 9.38674 31.4559 42.1808
1 8.60502 18.3982 19.0923
1 10.3096 46.2951 24.4994
1 17.5521 40.3549 29.2654
1 5.33502 22.6657 41.5492
1 29.5113 45.4947 9.67828
1 5.92783 10.1164 19.9868
1 8.95841 46.0231 14.3754
1 5.22935 34.0902 46.7457
1 13.2135 26.5746 15.184
1 46.9449 28.7139 34.0103
1 7.95835 9.56719 15.8772
1 3.55688 41.0332 16.9529
1 16.9808 5.39592 24.1434
1 10.798 3.47495 11.46
1 23.2468 17.8327 18.9084
1 41.2123 35.8393 2.68784
1 7.76607 23.763 9.15022
1 1.45186 34.858 19.7772
1 3.89285 24.2951 15.4004
1 14.1707 33.083 4.84123
1 9.8247 25.4102 26.5542
1 34.688 14.9729 22.7358
1 3.25239 25.0386 35.8677
1 26.523 40.1309 5.7721
1 38.6666 39.9327 9.95782
1 36.5618 12.7706 31.757
1 10.8834 6.54681 14.7243
1 18.262 31.3044 37.7492
1 27.7252 33.0443 27.8768
1 27.7808 7.59912 21.0493
1 20.6189 4.09902 40.7457
1 16.8413 2.46849 8.19093
1 39.8719 41.349 49.603
1 16.2007 20.3852 33.0947
1 48.7991 47.6029 11.3955
1 24.1184 6.25348 35.0026
1 13.1889 11.3439 24.4739
1 27.4646 39.4573 47.484
1 0.990627 36.9439 3.43681
1 41.6 27.4759 13.6028
1 20.3011 49.4895 49.2665
1 46.905 31.5842 48.322
1 0.923662 6.62736 0.292326
1 4.42293 47.4519 20.1671
1 31.1738 25.4585 33.7233
1 38.785 41.5002 39.8951
1 32.6634 18.8278 36.579
1 10.9025 42.6555 22.1158
1 4.72135 19.7661 14.2232
1 35.0251 36.6418 30.0169
1 37.9278 18.5099 15.8055
1 0.535259 14.0719 38.9928
1 0.906134 27.5416 42.8614
1 3.64587 15.6608 21.2051
1 48.0155 15.3027 21.6592
1 48.455 3.1813 6.95557
1 32.2233 10.3885 18.4174
1 36.8409 37.7936 27.2914
1 2.74955 45.61 18.5478
1 0.419186 45.0057 37.8167
1 2.86055 30.9655 19.6156
1 5.89897 3.22372 37.0249
1 19.4243 23.2759 23.2074
1 24.8203 26.6816 24.2492
1 26.2504 47.1206 3.74669
1 34.5011 40.2103 21.5187
1 11.809 49.3311 27.1133
1 36.2798 22.0986 21.9852
1 35.3103 6.12383 46.6347
1 2.11776 43.7329 33.2053
1 19.3518 35.7526 11.0816
1 1.79538 22.7963 16.4004
1 45.9549 41.0678 27.3144
1 42.6719 15.7727 14.5427
1 31.6026 42.1339 44.1807
1 44.145 8.94877 34.2205
1 34.7976 15.2702 31.3611
1 22.9159 10.2463 49.1434
1 40.458 27.2949 21.7839
1 9.92151 5.45396 6.72395
1 4.01044 4.92879 35.2689
1 33.8628 40.4938 45.1585
1 30.0729 27.6046 23.7913
1 39.9032 37.456 4.51844
1 3.23935 13.0705 29.7124
1 18.0492 28.0651 27.4346
1 10.2437 49.4675 14.7965
1 30.0414 25.1962 13.6067
1 29.441 34.88 33.5123
1 44.8372 43.3554 24.3665
1 39.5857 41.7334 13.2875
1 25.4492 14.928 30.6199
1 38.7669 24.277 30.4631
1 41.6652 37.2494 40.7199
1 4.16475 27.4777 32.6454
1 12.9763 47.4946 15.5911
1 15.726 6.79875 28.8369
1 34.3674 32.9863 38.4205
1 36.9171 8.87683 3.04628
1 6.55293 27.8377 34.1116
1 45.0002 46.1429 33.0855
1 1.22402 33.4245 13.1727
1 20.6402 49.3953 23.9628
1 10.0733 2.94048 26.9114
1 37.1004 45.919 35.266
1 13.839 22.286 2.57492
1 9.79168 20.5664 41.0217
1 49.6582 12.1642 2.55369
1 46.1047 33.8839 26.3352
1 38.5301 14.7236 28.293
1 23.8366 48.2459 29.2829
1 18.7697 15.7134 5.13208
1 33.8449 12.5974 14.6454
1 42.1831 36.9434 45.5942
1 21.5382 15.7567 10.7727
1 13.1367 39.7717 9.73964
1 25.1653 43.6922 40.1271
1 49.5285 9.66011 2.71018
1 17.3667 43.4418 48.6242
1 30.3722 23.0987 7.4692
1 13.415 39.0099 42.8966
1 26.2539 27.3632 48.1288
1 1.00707 23.868 1.73289
1 22.272 7.47664 2.44493
1 22.3973 29.6892 21.3576
1 8.8504 49.6938 18.7162
1 1.03732 16.023 25.3757
1 2.54405 9.3545 6.36274
1 7.15729 38.3892 39.757
1 18.8616 37.4645 47.7482
1 6.98375 23.0004 13.0028
1 7.57527 19.9755 29.2096
1 47.6189 24.2442 9.08735
1 31.9539 32.9192 1.89052
1 39.745 4.15895 1.09503
1 11.6149 5.13516 33.5347
1 37.7965 27.0257 20.4823
1 38.0948 13.9414 34.5476
1 44.2443 24.763 0.00756302
1 6.30285 42.8618 15.3229
1 4.69908 48.5227 45.63
1 15.6553 24.7657 29.6323
1 0.244097 27.8738 14.8873
1 10.7935 24.1099 11.921
1 1.7114 46.6056 11.5569
1 21.5197 41.7096 28.4593
1 12.4112 26.6452 32.0907
1 27.4388 32.1265 30.4789
1 2.04693 3.35436 9.92383
1 12.4615 9.45397 22.0138
1 37.4129 16.352 30.4139
1 7.79651 44.742 26.8293
1 22.9366 14.1211 25.3637
1 29.6077 35.6445 18.1529
1 31.9271 21.764 41.8853
1 18.8597 34.3077 31.3614
1 42.4394 10.8598 46.1451
1 9.60569 6.19331 11.5604
1 40.4942 43.4274 1.5392
1 43.7817 14.5753 21.312
1 14.3398 25.1885 22.3789
1 38.0601 6.6404 46.2655
1 25.2269 36.2098 8.22819
1 7.17059 29.2948 2.2878
1 47.5909 36.131 20.7571
1 15.529 42.0699 30.7372
1 4.17326 45.8997 37.4758
1 41.9774 0.371509 22.2025
1 33.6079 48.7907 9.49874
1 49.5341 35.7299 35.3651
1 31.0186 38.1765 30.6681
1 9.12541 35.54 27.2188
1 35.838 33.3718 1.08544
1 22.9941 45.8602 41.3638
1 6.05383 8.31394 24.704
1 25.518 34.3897 0.376269
1 1.24972 39.1973 49.2751
1 6.60393 0.907987 35.905
1 14.3668 36.1434 39.8716
1 15.8485 46.7468 24.7849
1 45.3604 26.9307 37.4949
1 12.3925 13.7894 49.213
1 13.4373 17.4389 19.6685
1 6.73023 30.1819 48.1568
1 34.7528 43.8696 38.4546
1 41.6548 21.3816 41.3558
1 49.7691 15.3084 31.5407
1 31.1633 10.1759 47.4137
1 33.7846 25.696 34.6355
1 27.706 23.8926 2.43284
1 32.7503 17.4776 43.524
1 36.8141 16.5659 34.6782
1 18.7271 28.1969 33.9388
1 4.3414 30.0798 47.6893
1 45.0007 27.5612 11.1758
1 4.27231 18.7033 24.3486
1 14.8378 45.267 41.4032
1 4.81546 6.81969 12.0036
1 10.3438 35.2412 29.8336
1 40.1341 40.8142 16.0767
1 32.8659 45.7873 47.979
1 25.5335 26.7261 0.890237
1 3.36683 30.0317 24.7652
1 2.63692 19.0211 1.1932
1 24.7253 27.3494 20.4141
1 21.7044 32.912 48.9052
1 41.7763 48.2207 48.7074
1 44.2886 47.3566 39.321
1 17.8981 30.421 8.54664
1 28.9924 14.3554 47.2753
1 23.542 28.4601 32.6374
1 31.8099 8.9184 8.34484
1 12.3364 32.0011 16.1744
1 49.4784 5.13943 2.36734
1 7.09072 5.39785 17.5668
1 11.3047 46.8002 27.1516
1 41.981 6.00948 2.13901
1 18.3758 17.6933 32.8356
1 0.927359 19.0336 29.9802
1 10.4146 21.9583 38.927
1 17.1234 46.3988 42.2077
1 49.7933 48.0232 20.7854
1 48.0355 38.7405 13.448